VARIABLES="X" "Y" "Z" "NX" "NY" "NZ" "A"
 ZONE N=         840 , E=         350  , F=FEPOINT,ET=QUADRILATERAL
   0.3888782E+00   0.3499970E-01  -0.2200000E+00   0.0000000E+00   0.0000000E+00   0.0000000E+00   0.0000000E+00
   0.3888782E+00   0.3499970E-01  -0.1833333E+00   0.0000000E+00   0.0000000E+00   0.0000000E+00   0.0000000E+00
   0.3888782E+00   0.3499970E-01  -0.1466667E+00   0.0000000E+00   0.0000000E+00   0.0000000E+00   0.0000000E+00
   0.3888782E+00   0.3499970E-01  -0.1100000E+00   0.0000000E+00   0.0000000E+00   0.0000000E+00   0.0000000E+00
   0.3888782E+00   0.3499970E-01  -0.7333330E-01   0.0000000E+00   0.0000000E+00   0.0000000E+00   0.0000000E+00
   0.3888782E+00   0.3499970E-01  -0.3666670E-01   0.0000000E+00   0.0000000E+00   0.0000000E+00   0.0000000E+00
   0.3888782E+00   0.3499970E-01   0.0000000E+00   0.0000000E+00   0.0000000E+00   0.0000000E+00   0.0000000E+00
   0.3904500E+00   0.0000000E+00  -0.2200000E+00   0.0000000E+00   0.0000000E+00   0.0000000E+00   0.0000000E+00
   0.3904500E+00   0.0000000E+00  -0.1833333E+00   0.0000000E+00   0.0000000E+00   0.0000000E+00   0.0000000E+00
   0.3904500E+00   0.0000000E+00  -0.1466667E+00   0.0000000E+00   0.0000000E+00   0.0000000E+00   0.0000000E+00
   0.3904500E+00   0.0000000E+00  -0.1100000E+00   0.0000000E+00   0.0000000E+00   0.0000000E+00   0.0000000E+00
   0.3904500E+00   0.0000000E+00  -0.7333330E-01   0.0000000E+00   0.0000000E+00   0.0000000E+00   0.0000000E+00
   0.3904500E+00   0.0000000E+00  -0.3666670E-01   0.0000000E+00   0.0000000E+00   0.0000000E+00   0.0000000E+00
   0.3904500E+00   0.0000000E+00   0.0000000E+00   0.0000000E+00   0.0000000E+00   0.0000000E+00   0.0000000E+00
   0.3841753E+00   0.6971750E-01  -0.2200000E+00   0.0000000E+00   0.0000000E+00   0.0000000E+00   0.0000000E+00
   0.3841753E+00   0.6971750E-01  -0.1833333E+00   0.0000000E+00   0.0000000E+00   0.0000000E+00   0.0000000E+00
   0.3841753E+00   0.6971750E-01  -0.1466667E+00   0.0000000E+00   0.0000000E+00   0.0000000E+00   0.0000000E+00
   0.3841753E+00   0.6971750E-01  -0.1100000E+00   0.0000000E+00   0.0000000E+00   0.0000000E+00   0.0000000E+00
   0.3841753E+00   0.6971750E-01  -0.7333330E-01   0.0000000E+00   0.0000000E+00   0.0000000E+00   0.0000000E+00
   0.3841753E+00   0.6971750E-01  -0.3666670E-01   0.0000000E+00   0.0000000E+00   0.0000000E+00   0.0000000E+00
   0.3841753E+00   0.6971750E-01   0.0000000E+00   0.0000000E+00   0.0000000E+00   0.0000000E+00   0.0000000E+00
   0.3888782E+00   0.3499970E-01  -0.2200000E+00   0.0000000E+00   0.0000000E+00   0.0000000E+00   0.0000000E+00
   0.3888782E+00   0.3499970E-01  -0.1833333E+00   0.0000000E+00   0.0000000E+00   0.0000000E+00   0.0000000E+00
   0.3888782E+00   0.3499970E-01  -0.1466667E+00   0.0000000E+00   0.0000000E+00   0.0000000E+00   0.0000000E+00
   0.3888782E+00   0.3499970E-01  -0.1100000E+00   0.0000000E+00   0.0000000E+00   0.0000000E+00   0.0000000E+00
   0.3888782E+00   0.3499970E-01  -0.7333330E-01   0.0000000E+00   0.0000000E+00   0.0000000E+00   0.0000000E+00
   0.3888782E+00   0.3499970E-01  -0.3666670E-01   0.0000000E+00   0.0000000E+00   0.0000000E+00   0.0000000E+00
   0.3888782E+00   0.3499970E-01   0.0000000E+00   0.0000000E+00   0.0000000E+00   0.0000000E+00   0.0000000E+00
   0.3763793E+00   0.1038741E+00  -0.2200000E+00   0.0000000E+00   0.0000000E+00   0.0000000E+00   0.0000000E+00
   0.3763793E+00   0.1038741E+00  -0.1833333E+00   0.0000000E+00   0.0000000E+00   0.0000000E+00   0.0000000E+00
   0.3763793E+00   0.1038741E+00  -0.1466667E+00   0.0000000E+00   0.0000000E+00   0.0000000E+00   0.0000000E+00
   0.3763793E+00   0.1038741E+00  -0.1100000E+00   0.0000000E+00   0.0000000E+00   0.0000000E+00   0.0000000E+00
   0.3763793E+00   0.1038741E+00  -0.7333330E-01   0.0000000E+00   0.0000000E+00   0.0000000E+00   0.0000000E+00
   0.3763793E+00   0.1038741E+00  -0.3666670E-01   0.0000000E+00   0.0000000E+00   0.0000000E+00   0.0000000E+00
   0.3763793E+00   0.1038741E+00   0.0000000E+00   0.0000000E+00   0.0000000E+00   0.0000000E+00   0.0000000E+00
   0.3841753E+00   0.6971750E-01  -0.2200000E+00   0.0000000E+00   0.0000000E+00   0.0000000E+00   0.0000000E+00
   0.3841753E+00   0.6971750E-01  -0.1833333E+00   0.0000000E+00   0.0000000E+00   0.0000000E+00   0.0000000E+00
   0.3841753E+00   0.6971750E-01  -0.1466667E+00   0.0000000E+00   0.0000000E+00   0.0000000E+00   0.0000000E+00
   0.3841753E+00   0.6971750E-01  -0.1100000E+00   0.0000000E+00   0.0000000E+00   0.0000000E+00   0.0000000E+00
   0.3841753E+00   0.6971750E-01  -0.7333330E-01   0.0000000E+00   0.0000000E+00   0.0000000E+00   0.0000000E+00
   0.3841753E+00   0.6971750E-01  -0.3666670E-01   0.0000000E+00   0.0000000E+00   0.0000000E+00   0.0000000E+00
   0.3841753E+00   0.6971750E-01   0.0000000E+00   0.0000000E+00   0.0000000E+00   0.0000000E+00   0.0000000E+00
   0.3655529E+00   0.1371943E+00  -0.2200000E+00   0.0000000E+00   0.0000000E+00   0.0000000E+00   0.0000000E+00
   0.3655529E+00   0.1371943E+00  -0.1833333E+00   0.0000000E+00   0.0000000E+00   0.0000000E+00   0.0000000E+00
   0.3655529E+00   0.1371943E+00  -0.1466667E+00   0.0000000E+00   0.0000000E+00   0.0000000E+00   0.0000000E+00
   0.3655529E+00   0.1371943E+00  -0.1100000E+00   0.0000000E+00   0.0000000E+00   0.0000000E+00   0.0000000E+00
   0.3655529E+00   0.1371943E+00  -0.7333330E-01   0.0000000E+00   0.0000000E+00   0.0000000E+00   0.0000000E+00
   0.3655529E+00   0.1371943E+00  -0.3666670E-01   0.0000000E+00   0.0000000E+00   0.0000000E+00   0.0000000E+00
   0.3655529E+00   0.1371943E+00   0.0000000E+00   0.0000000E+00   0.0000000E+00   0.0000000E+00   0.0000000E+00
   0.3763793E+00   0.1038741E+00  -0.2200000E+00   0.0000000E+00   0.0000000E+00   0.0000000E+00   0.0000000E+00
   0.3763793E+00   0.1038741E+00  -0.1833333E+00   0.0000000E+00   0.0000000E+00   0.0000000E+00   0.0000000E+00
   0.3763793E+00   0.1038741E+00  -0.1466667E+00   0.0000000E+00   0.0000000E+00   0.0000000E+00   0.0000000E+00
   0.3763793E+00   0.1038741E+00  -0.1100000E+00   0.0000000E+00   0.0000000E+00   0.0000000E+00   0.0000000E+00
   0.3763793E+00   0.1038741E+00  -0.7333330E-01   0.0000000E+00   0.0000000E+00   0.0000000E+00   0.0000000E+00
   0.3763793E+00   0.1038741E+00  -0.3666670E-01   0.0000000E+00   0.0000000E+00   0.0000000E+00   0.0000000E+00
   0.3763793E+00   0.1038741E+00   0.0000000E+00   0.0000000E+00   0.0000000E+00   0.0000000E+00   0.0000000E+00
   0.3517833E+00   0.1694099E+00  -0.2200000E+00   0.0000000E+00   0.0000000E+00   0.0000000E+00   0.0000000E+00
   0.3517833E+00   0.1694099E+00  -0.1833333E+00   0.0000000E+00   0.0000000E+00   0.0000000E+00   0.0000000E+00
   0.3517833E+00   0.1694099E+00  -0.1466667E+00   0.0000000E+00   0.0000000E+00   0.0000000E+00   0.0000000E+00
   0.3517833E+00   0.1694099E+00  -0.1100000E+00   0.0000000E+00   0.0000000E+00   0.0000000E+00   0.0000000E+00
   0.3517833E+00   0.1694099E+00  -0.7333330E-01   0.0000000E+00   0.0000000E+00   0.0000000E+00   0.0000000E+00
   0.3517833E+00   0.1694099E+00  -0.3666670E-01   0.0000000E+00   0.0000000E+00   0.0000000E+00   0.0000000E+00
   0.3517833E+00   0.1694099E+00   0.0000000E+00   0.0000000E+00   0.0000000E+00   0.0000000E+00   0.0000000E+00
   0.3655529E+00   0.1371943E+00  -0.2200000E+00   0.0000000E+00   0.0000000E+00   0.0000000E+00   0.0000000E+00
   0.3655529E+00   0.1371943E+00  -0.1833333E+00   0.0000000E+00   0.0000000E+00   0.0000000E+00   0.0000000E+00
   0.3655529E+00   0.1371943E+00  -0.1466667E+00   0.0000000E+00   0.0000000E+00   0.0000000E+00   0.0000000E+00
   0.3655529E+00   0.1371943E+00  -0.1100000E+00   0.0000000E+00   0.0000000E+00   0.0000000E+00   0.0000000E+00
   0.3655529E+00   0.1371943E+00  -0.7333330E-01   0.0000000E+00   0.0000000E+00   0.0000000E+00   0.0000000E+00
   0.3655529E+00   0.1371943E+00  -0.3666670E-01   0.0000000E+00   0.0000000E+00   0.0000000E+00   0.0000000E+00
   0.3655529E+00   0.1371943E+00   0.0000000E+00   0.0000000E+00   0.0000000E+00   0.0000000E+00   0.0000000E+00
   0.3351813E+00   0.2002615E+00  -0.2200000E+00   0.0000000E+00   0.0000000E+00   0.0000000E+00   0.0000000E+00
   0.3351813E+00   0.2002615E+00  -0.1833333E+00   0.0000000E+00   0.0000000E+00   0.0000000E+00   0.0000000E+00
   0.3351813E+00   0.2002615E+00  -0.1466667E+00   0.0000000E+00   0.0000000E+00   0.0000000E+00   0.0000000E+00
   0.3351813E+00   0.2002615E+00  -0.1100000E+00   0.0000000E+00   0.0000000E+00   0.0000000E+00   0.0000000E+00
   0.3351813E+00   0.2002615E+00  -0.7333330E-01   0.0000000E+00   0.0000000E+00   0.0000000E+00   0.0000000E+00
   0.3351813E+00   0.2002615E+00  -0.3666670E-01   0.0000000E+00   0.0000000E+00   0.0000000E+00   0.0000000E+00
   0.3351813E+00   0.2002615E+00   0.0000000E+00   0.0000000E+00   0.0000000E+00   0.0000000E+00   0.0000000E+00
   0.3517833E+00   0.1694099E+00  -0.2200000E+00   0.0000000E+00   0.0000000E+00   0.0000000E+00   0.0000000E+00
   0.3517833E+00   0.1694099E+00  -0.1833333E+00   0.0000000E+00   0.0000000E+00   0.0000000E+00   0.0000000E+00
   0.3517833E+00   0.1694099E+00  -0.1466667E+00   0.0000000E+00   0.0000000E+00   0.0000000E+00   0.0000000E+00
   0.3517833E+00   0.1694099E+00  -0.1100000E+00   0.0000000E+00   0.0000000E+00   0.0000000E+00   0.0000000E+00
   0.3517833E+00   0.1694099E+00  -0.7333330E-01   0.0000000E+00   0.0000000E+00   0.0000000E+00   0.0000000E+00
   0.3517833E+00   0.1694099E+00  -0.3666670E-01   0.0000000E+00   0.0000000E+00   0.0000000E+00   0.0000000E+00
   0.3517833E+00   0.1694099E+00   0.0000000E+00   0.0000000E+00   0.0000000E+00   0.0000000E+00   0.0000000E+00
   0.3158807E+00   0.2295008E+00  -0.2200000E+00   0.0000000E+00   0.0000000E+00   0.0000000E+00   0.0000000E+00
   0.3158807E+00   0.2295008E+00  -0.1833333E+00   0.0000000E+00   0.0000000E+00   0.0000000E+00   0.0000000E+00
   0.3158807E+00   0.2295008E+00  -0.1466667E+00   0.0000000E+00   0.0000000E+00   0.0000000E+00   0.0000000E+00
   0.3158807E+00   0.2295008E+00  -0.1100000E+00   0.0000000E+00   0.0000000E+00   0.0000000E+00   0.0000000E+00
   0.3158807E+00   0.2295008E+00  -0.7333330E-01   0.0000000E+00   0.0000000E+00   0.0000000E+00   0.0000000E+00
   0.3158807E+00   0.2295008E+00  -0.3666670E-01   0.0000000E+00   0.0000000E+00   0.0000000E+00   0.0000000E+00
   0.3158807E+00   0.2295008E+00   0.0000000E+00   0.0000000E+00   0.0000000E+00   0.0000000E+00   0.0000000E+00
   0.3351813E+00   0.2002615E+00  -0.2200000E+00   0.0000000E+00   0.0000000E+00   0.0000000E+00   0.0000000E+00
   0.3351813E+00   0.2002615E+00  -0.1833333E+00   0.0000000E+00   0.0000000E+00   0.0000000E+00   0.0000000E+00
   0.3351813E+00   0.2002615E+00  -0.1466667E+00   0.0000000E+00   0.0000000E+00   0.0000000E+00   0.0000000E+00
   0.3351813E+00   0.2002615E+00  -0.1100000E+00   0.0000000E+00   0.0000000E+00   0.0000000E+00   0.0000000E+00
   0.3351813E+00   0.2002615E+00  -0.7333330E-01   0.0000000E+00   0.0000000E+00   0.0000000E+00   0.0000000E+00
   0.3351813E+00   0.2002615E+00  -0.3666670E-01   0.0000000E+00   0.0000000E+00   0.0000000E+00   0.0000000E+00
   0.3351813E+00   0.2002615E+00   0.0000000E+00   0.0000000E+00   0.0000000E+00   0.0000000E+00   0.0000000E+00
   0.2940368E+00   0.2568922E+00  -0.2200000E+00   0.0000000E+00   0.0000000E+00   0.0000000E+00   0.0000000E+00
   0.2940368E+00   0.2568922E+00  -0.1833333E+00   0.0000000E+00   0.0000000E+00   0.0000000E+00   0.0000000E+00
   0.2940368E+00   0.2568922E+00  -0.1466667E+00   0.0000000E+00   0.0000000E+00   0.0000000E+00   0.0000000E+00
   0.2940368E+00   0.2568922E+00  -0.1100000E+00   0.0000000E+00   0.0000000E+00   0.0000000E+00   0.0000000E+00
   0.2940368E+00   0.2568922E+00  -0.7333330E-01   0.0000000E+00   0.0000000E+00   0.0000000E+00   0.0000000E+00
   0.2940368E+00   0.2568922E+00  -0.3666670E-01   0.0000000E+00   0.0000000E+00   0.0000000E+00   0.0000000E+00
   0.2940368E+00   0.2568922E+00   0.0000000E+00   0.0000000E+00   0.0000000E+00   0.0000000E+00   0.0000000E+00
   0.3158807E+00   0.2295008E+00  -0.2200000E+00   0.0000000E+00   0.0000000E+00   0.0000000E+00   0.0000000E+00
   0.3158807E+00   0.2295008E+00  -0.1833333E+00   0.0000000E+00   0.0000000E+00   0.0000000E+00   0.0000000E+00
   0.3158807E+00   0.2295008E+00  -0.1466667E+00   0.0000000E+00   0.0000000E+00   0.0000000E+00   0.0000000E+00
   0.3158807E+00   0.2295008E+00  -0.1100000E+00   0.0000000E+00   0.0000000E+00   0.0000000E+00   0.0000000E+00
   0.3158807E+00   0.2295008E+00  -0.7333330E-01   0.0000000E+00   0.0000000E+00   0.0000000E+00   0.0000000E+00
   0.3158807E+00   0.2295008E+00  -0.3666670E-01   0.0000000E+00   0.0000000E+00   0.0000000E+00   0.0000000E+00
   0.3158807E+00   0.2295008E+00   0.0000000E+00   0.0000000E+00   0.0000000E+00   0.0000000E+00   0.0000000E+00
   0.2698254E+00   0.2822153E+00  -0.2200000E+00   0.0000000E+00   0.0000000E+00   0.0000000E+00   0.0000000E+00
   0.2698254E+00   0.2822153E+00  -0.1833333E+00   0.0000000E+00   0.0000000E+00   0.0000000E+00   0.0000000E+00
   0.2698254E+00   0.2822153E+00  -0.1466667E+00   0.0000000E+00   0.0000000E+00   0.0000000E+00   0.0000000E+00
   0.2698254E+00   0.2822153E+00  -0.1100000E+00   0.0000000E+00   0.0000000E+00   0.0000000E+00   0.0000000E+00
   0.2698254E+00   0.2822153E+00  -0.7333330E-01   0.0000000E+00   0.0000000E+00   0.0000000E+00   0.0000000E+00
   0.2698254E+00   0.2822153E+00  -0.3666670E-01   0.0000000E+00   0.0000000E+00   0.0000000E+00   0.0000000E+00
   0.2698254E+00   0.2822153E+00   0.0000000E+00   0.0000000E+00   0.0000000E+00   0.0000000E+00   0.0000000E+00
   0.2940368E+00   0.2568922E+00  -0.2200000E+00   0.0000000E+00   0.0000000E+00   0.0000000E+00   0.0000000E+00
   0.2940368E+00   0.2568922E+00  -0.1833333E+00   0.0000000E+00   0.0000000E+00   0.0000000E+00   0.0000000E+00
   0.2940368E+00   0.2568922E+00  -0.1466667E+00   0.0000000E+00   0.0000000E+00   0.0000000E+00   0.0000000E+00
   0.2940368E+00   0.2568922E+00  -0.1100000E+00   0.0000000E+00   0.0000000E+00   0.0000000E+00   0.0000000E+00
   0.2940368E+00   0.2568922E+00  -0.7333330E-01   0.0000000E+00   0.0000000E+00   0.0000000E+00   0.0000000E+00
   0.2940368E+00   0.2568922E+00  -0.3666670E-01   0.0000000E+00   0.0000000E+00   0.0000000E+00   0.0000000E+00
   0.2940368E+00   0.2568922E+00   0.0000000E+00   0.0000000E+00   0.0000000E+00   0.0000000E+00   0.0000000E+00
   0.2434416E+00   0.3052661E+00  -0.2200000E+00   0.0000000E+00   0.0000000E+00   0.0000000E+00   0.0000000E+00
   0.2434416E+00   0.3052661E+00  -0.1833333E+00   0.0000000E+00   0.0000000E+00   0.0000000E+00   0.0000000E+00
   0.2434416E+00   0.3052661E+00  -0.1466667E+00   0.0000000E+00   0.0000000E+00   0.0000000E+00   0.0000000E+00
   0.2434416E+00   0.3052661E+00  -0.1100000E+00   0.0000000E+00   0.0000000E+00   0.0000000E+00   0.0000000E+00
   0.2434416E+00   0.3052661E+00  -0.7333330E-01   0.0000000E+00   0.0000000E+00   0.0000000E+00   0.0000000E+00
   0.2434416E+00   0.3052661E+00  -0.3666670E-01   0.0000000E+00   0.0000000E+00   0.0000000E+00   0.0000000E+00
   0.2434416E+00   0.3052661E+00   0.0000000E+00   0.0000000E+00   0.0000000E+00   0.0000000E+00   0.0000000E+00
   0.2698254E+00   0.2822153E+00  -0.2200000E+00   0.0000000E+00   0.0000000E+00   0.0000000E+00   0.0000000E+00
   0.2698254E+00   0.2822153E+00  -0.1833333E+00   0.0000000E+00   0.0000000E+00   0.0000000E+00   0.0000000E+00
   0.2698254E+00   0.2822153E+00  -0.1466667E+00   0.0000000E+00   0.0000000E+00   0.0000000E+00   0.0000000E+00
   0.2698254E+00   0.2822153E+00  -0.1100000E+00   0.0000000E+00   0.0000000E+00   0.0000000E+00   0.0000000E+00
   0.2698254E+00   0.2822153E+00  -0.7333330E-01   0.0000000E+00   0.0000000E+00   0.0000000E+00   0.0000000E+00
   0.2698254E+00   0.2822153E+00  -0.3666670E-01   0.0000000E+00   0.0000000E+00   0.0000000E+00   0.0000000E+00
   0.2698254E+00   0.2822153E+00   0.0000000E+00   0.0000000E+00   0.0000000E+00   0.0000000E+00   0.0000000E+00
   0.2150977E+00   0.3258591E+00  -0.2200000E+00   0.0000000E+00   0.0000000E+00   0.0000000E+00   0.0000000E+00
   0.2150977E+00   0.3258591E+00  -0.1833333E+00   0.0000000E+00   0.0000000E+00   0.0000000E+00   0.0000000E+00
   0.2150977E+00   0.3258591E+00  -0.1466667E+00   0.0000000E+00   0.0000000E+00   0.0000000E+00   0.0000000E+00
   0.2150977E+00   0.3258591E+00  -0.1100000E+00   0.0000000E+00   0.0000000E+00   0.0000000E+00   0.0000000E+00
   0.2150977E+00   0.3258591E+00  -0.7333330E-01   0.0000000E+00   0.0000000E+00   0.0000000E+00   0.0000000E+00
   0.2150977E+00   0.3258591E+00  -0.3666670E-01   0.0000000E+00   0.0000000E+00   0.0000000E+00   0.0000000E+00
   0.2150977E+00   0.3258591E+00   0.0000000E+00   0.0000000E+00   0.0000000E+00   0.0000000E+00   0.0000000E+00
   0.2434416E+00   0.3052661E+00  -0.2200000E+00   0.0000000E+00   0.0000000E+00   0.0000000E+00   0.0000000E+00
   0.2434416E+00   0.3052661E+00  -0.1833333E+00   0.0000000E+00   0.0000000E+00   0.0000000E+00   0.0000000E+00
   0.2434416E+00   0.3052661E+00  -0.1466667E+00   0.0000000E+00   0.0000000E+00   0.0000000E+00   0.0000000E+00
   0.2434416E+00   0.3052661E+00  -0.1100000E+00   0.0000000E+00   0.0000000E+00   0.0000000E+00   0.0000000E+00
   0.2434416E+00   0.3052661E+00  -0.7333330E-01   0.0000000E+00   0.0000000E+00   0.0000000E+00   0.0000000E+00
   0.2434416E+00   0.3052661E+00  -0.3666670E-01   0.0000000E+00   0.0000000E+00   0.0000000E+00   0.0000000E+00
   0.2434416E+00   0.3052661E+00   0.0000000E+00   0.0000000E+00   0.0000000E+00   0.0000000E+00   0.0000000E+00
   0.1850220E+00   0.3438285E+00  -0.2200000E+00   0.0000000E+00   0.0000000E+00   0.0000000E+00   0.0000000E+00
   0.1850220E+00   0.3438285E+00  -0.1833333E+00   0.0000000E+00   0.0000000E+00   0.0000000E+00   0.0000000E+00
   0.1850220E+00   0.3438285E+00  -0.1466667E+00   0.0000000E+00   0.0000000E+00   0.0000000E+00   0.0000000E+00
   0.1850220E+00   0.3438285E+00  -0.1100000E+00   0.0000000E+00   0.0000000E+00   0.0000000E+00   0.0000000E+00
   0.1850220E+00   0.3438285E+00  -0.7333330E-01   0.0000000E+00   0.0000000E+00   0.0000000E+00   0.0000000E+00
   0.1850220E+00   0.3438285E+00  -0.3666670E-01   0.0000000E+00   0.0000000E+00   0.0000000E+00   0.0000000E+00
   0.1850220E+00   0.3438285E+00   0.0000000E+00   0.0000000E+00   0.0000000E+00   0.0000000E+00   0.0000000E+00
   0.2150977E+00   0.3258591E+00  -0.2200000E+00   0.0000000E+00   0.0000000E+00   0.0000000E+00   0.0000000E+00
   0.2150977E+00   0.3258591E+00  -0.1833333E+00   0.0000000E+00   0.0000000E+00   0.0000000E+00   0.0000000E+00
   0.2150977E+00   0.3258591E+00  -0.1466667E+00   0.0000000E+00   0.0000000E+00   0.0000000E+00   0.0000000E+00
   0.2150977E+00   0.3258591E+00  -0.1100000E+00   0.0000000E+00   0.0000000E+00   0.0000000E+00   0.0000000E+00
   0.2150977E+00   0.3258591E+00  -0.7333330E-01   0.0000000E+00   0.0000000E+00   0.0000000E+00   0.0000000E+00
   0.2150977E+00   0.3258591E+00  -0.3666670E-01   0.0000000E+00   0.0000000E+00   0.0000000E+00   0.0000000E+00
   0.2150977E+00   0.3258591E+00   0.0000000E+00   0.0000000E+00   0.0000000E+00   0.0000000E+00   0.0000000E+00
   0.1534566E+00   0.3590296E+00  -0.2200000E+00   0.0000000E+00   0.0000000E+00   0.0000000E+00   0.0000000E+00
   0.1534566E+00   0.3590296E+00  -0.1833333E+00   0.0000000E+00   0.0000000E+00   0.0000000E+00   0.0000000E+00
   0.1534566E+00   0.3590296E+00  -0.1466667E+00   0.0000000E+00   0.0000000E+00   0.0000000E+00   0.0000000E+00
   0.1534566E+00   0.3590296E+00  -0.1100000E+00   0.0000000E+00   0.0000000E+00   0.0000000E+00   0.0000000E+00
   0.1534566E+00   0.3590296E+00  -0.7333330E-01   0.0000000E+00   0.0000000E+00   0.0000000E+00   0.0000000E+00
   0.1534566E+00   0.3590296E+00  -0.3666670E-01   0.0000000E+00   0.0000000E+00   0.0000000E+00   0.0000000E+00
   0.1534566E+00   0.3590296E+00   0.0000000E+00   0.0000000E+00   0.0000000E+00   0.0000000E+00   0.0000000E+00
   0.1850220E+00   0.3438285E+00  -0.2200000E+00   0.0000000E+00   0.0000000E+00   0.0000000E+00   0.0000000E+00
   0.1850220E+00   0.3438285E+00  -0.1833333E+00   0.0000000E+00   0.0000000E+00   0.0000000E+00   0.0000000E+00
   0.1850220E+00   0.3438285E+00  -0.1466667E+00   0.0000000E+00   0.0000000E+00   0.0000000E+00   0.0000000E+00
   0.1850220E+00   0.3438285E+00  -0.1100000E+00   0.0000000E+00   0.0000000E+00   0.0000000E+00   0.0000000E+00
   0.1850220E+00   0.3438285E+00  -0.7333330E-01   0.0000000E+00   0.0000000E+00   0.0000000E+00   0.0000000E+00
   0.1850220E+00   0.3438285E+00  -0.3666670E-01   0.0000000E+00   0.0000000E+00   0.0000000E+00   0.0000000E+00
   0.1850220E+00   0.3438285E+00   0.0000000E+00   0.0000000E+00   0.0000000E+00   0.0000000E+00   0.0000000E+00
   0.1206557E+00   0.3713400E+00  -0.2200000E+00   0.0000000E+00   0.0000000E+00   0.0000000E+00   0.0000000E+00
   0.1206557E+00   0.3713400E+00  -0.1833333E+00   0.0000000E+00   0.0000000E+00   0.0000000E+00   0.0000000E+00
   0.1206557E+00   0.3713400E+00  -0.1466667E+00   0.0000000E+00   0.0000000E+00   0.0000000E+00   0.0000000E+00
   0.1206557E+00   0.3713400E+00  -0.1100000E+00   0.0000000E+00   0.0000000E+00   0.0000000E+00   0.0000000E+00
   0.1206557E+00   0.3713400E+00  -0.7333330E-01   0.0000000E+00   0.0000000E+00   0.0000000E+00   0.0000000E+00
   0.1206557E+00   0.3713400E+00  -0.3666670E-01   0.0000000E+00   0.0000000E+00   0.0000000E+00   0.0000000E+00
   0.1206557E+00   0.3713400E+00   0.0000000E+00   0.0000000E+00   0.0000000E+00   0.0000000E+00   0.0000000E+00
   0.1534566E+00   0.3590296E+00  -0.2200000E+00   0.0000000E+00   0.0000000E+00   0.0000000E+00   0.0000000E+00
   0.1534566E+00   0.3590296E+00  -0.1833333E+00   0.0000000E+00   0.0000000E+00   0.0000000E+00   0.0000000E+00
   0.1534566E+00   0.3590296E+00  -0.1466667E+00   0.0000000E+00   0.0000000E+00   0.0000000E+00   0.0000000E+00
   0.1534566E+00   0.3590296E+00  -0.1100000E+00   0.0000000E+00   0.0000000E+00   0.0000000E+00   0.0000000E+00
   0.1534566E+00   0.3590296E+00  -0.7333330E-01   0.0000000E+00   0.0000000E+00   0.0000000E+00   0.0000000E+00
   0.1534566E+00   0.3590296E+00  -0.3666670E-01   0.0000000E+00   0.0000000E+00   0.0000000E+00   0.0000000E+00
   0.1534566E+00   0.3590296E+00   0.0000000E+00   0.0000000E+00   0.0000000E+00   0.0000000E+00   0.0000000E+00
   0.8688330E-01   0.3806606E+00  -0.2200000E+00   0.0000000E+00   0.0000000E+00   0.0000000E+00   0.0000000E+00
   0.8688330E-01   0.3806606E+00  -0.1833333E+00   0.0000000E+00   0.0000000E+00   0.0000000E+00   0.0000000E+00
   0.8688330E-01   0.3806606E+00  -0.1466667E+00   0.0000000E+00   0.0000000E+00   0.0000000E+00   0.0000000E+00
   0.8688330E-01   0.3806606E+00  -0.1100000E+00   0.0000000E+00   0.0000000E+00   0.0000000E+00   0.0000000E+00
   0.8688330E-01   0.3806606E+00  -0.7333330E-01   0.0000000E+00   0.0000000E+00   0.0000000E+00   0.0000000E+00
   0.8688330E-01   0.3806606E+00  -0.3666670E-01   0.0000000E+00   0.0000000E+00   0.0000000E+00   0.0000000E+00
   0.8688330E-01   0.3806606E+00   0.0000000E+00   0.0000000E+00   0.0000000E+00   0.0000000E+00   0.0000000E+00
   0.1206557E+00   0.3713400E+00  -0.2200000E+00   0.0000000E+00   0.0000000E+00   0.0000000E+00   0.0000000E+00
   0.1206557E+00   0.3713400E+00  -0.1833333E+00   0.0000000E+00   0.0000000E+00   0.0000000E+00   0.0000000E+00
   0.1206557E+00   0.3713400E+00  -0.1466667E+00   0.0000000E+00   0.0000000E+00   0.0000000E+00   0.0000000E+00
   0.1206557E+00   0.3713400E+00  -0.1100000E+00   0.0000000E+00   0.0000000E+00   0.0000000E+00   0.0000000E+00
   0.1206557E+00   0.3713400E+00  -0.7333330E-01   0.0000000E+00   0.0000000E+00   0.0000000E+00   0.0000000E+00
   0.1206557E+00   0.3713400E+00  -0.3666670E-01   0.0000000E+00   0.0000000E+00   0.0000000E+00   0.0000000E+00
   0.1206557E+00   0.3713400E+00   0.0000000E+00   0.0000000E+00   0.0000000E+00   0.0000000E+00   0.0000000E+00
   0.5241140E-01   0.3869163E+00  -0.2200000E+00   0.0000000E+00   0.0000000E+00   0.0000000E+00   0.0000000E+00
   0.5241140E-01   0.3869163E+00  -0.1833333E+00   0.0000000E+00   0.0000000E+00   0.0000000E+00   0.0000000E+00
   0.5241140E-01   0.3869163E+00  -0.1466667E+00   0.0000000E+00   0.0000000E+00   0.0000000E+00   0.0000000E+00
   0.5241140E-01   0.3869163E+00  -0.1100000E+00   0.0000000E+00   0.0000000E+00   0.0000000E+00   0.0000000E+00
   0.5241140E-01   0.3869163E+00  -0.7333330E-01   0.0000000E+00   0.0000000E+00   0.0000000E+00   0.0000000E+00
   0.5241140E-01   0.3869163E+00  -0.3666670E-01   0.0000000E+00   0.0000000E+00   0.0000000E+00   0.0000000E+00
   0.5241140E-01   0.3869163E+00   0.0000000E+00   0.0000000E+00   0.0000000E+00   0.0000000E+00   0.0000000E+00
   0.8688330E-01   0.3806606E+00  -0.2200000E+00   0.0000000E+00   0.0000000E+00   0.0000000E+00   0.0000000E+00
   0.8688330E-01   0.3806606E+00  -0.1833333E+00   0.0000000E+00   0.0000000E+00   0.0000000E+00   0.0000000E+00
   0.8688330E-01   0.3806606E+00  -0.1466667E+00   0.0000000E+00   0.0000000E+00   0.0000000E+00   0.0000000E+00
   0.8688330E-01   0.3806606E+00  -0.1100000E+00   0.0000000E+00   0.0000000E+00   0.0000000E+00   0.0000000E+00
   0.8688330E-01   0.3806606E+00  -0.7333330E-01   0.0000000E+00   0.0000000E+00   0.0000000E+00   0.0000000E+00
   0.8688330E-01   0.3806606E+00  -0.3666670E-01   0.0000000E+00   0.0000000E+00   0.0000000E+00   0.0000000E+00
   0.8688330E-01   0.3806606E+00   0.0000000E+00   0.0000000E+00   0.0000000E+00   0.0000000E+00   0.0000000E+00
   0.1751750E-01   0.3900568E+00  -0.2200000E+00   0.0000000E+00   0.0000000E+00   0.0000000E+00   0.0000000E+00
   0.1751750E-01   0.3900568E+00  -0.1833333E+00   0.0000000E+00   0.0000000E+00   0.0000000E+00   0.0000000E+00
   0.1751750E-01   0.3900568E+00  -0.1466667E+00   0.0000000E+00   0.0000000E+00   0.0000000E+00   0.0000000E+00
   0.1751750E-01   0.3900568E+00  -0.1100000E+00   0.0000000E+00   0.0000000E+00   0.0000000E+00   0.0000000E+00
   0.1751750E-01   0.3900568E+00  -0.7333330E-01   0.0000000E+00   0.0000000E+00   0.0000000E+00   0.0000000E+00
   0.1751750E-01   0.3900568E+00  -0.3666670E-01   0.0000000E+00   0.0000000E+00   0.0000000E+00   0.0000000E+00
   0.1751750E-01   0.3900568E+00   0.0000000E+00   0.0000000E+00   0.0000000E+00   0.0000000E+00   0.0000000E+00
   0.5241140E-01   0.3869163E+00  -0.2200000E+00   0.0000000E+00   0.0000000E+00   0.0000000E+00   0.0000000E+00
   0.5241140E-01   0.3869163E+00  -0.1833333E+00   0.0000000E+00   0.0000000E+00   0.0000000E+00   0.0000000E+00
   0.5241140E-01   0.3869163E+00  -0.1466667E+00   0.0000000E+00   0.0000000E+00   0.0000000E+00   0.0000000E+00
   0.5241140E-01   0.3869163E+00  -0.1100000E+00   0.0000000E+00   0.0000000E+00   0.0000000E+00   0.0000000E+00
   0.5241140E-01   0.3869163E+00  -0.7333330E-01   0.0000000E+00   0.0000000E+00   0.0000000E+00   0.0000000E+00
   0.5241140E-01   0.3869163E+00  -0.3666670E-01   0.0000000E+00   0.0000000E+00   0.0000000E+00   0.0000000E+00
   0.5241140E-01   0.3869163E+00   0.0000000E+00   0.0000000E+00   0.0000000E+00   0.0000000E+00   0.0000000E+00
  -0.1751750E-01   0.3900568E+00  -0.2200000E+00   0.0000000E+00   0.0000000E+00   0.0000000E+00   0.0000000E+00
  -0.1751750E-01   0.3900568E+00  -0.1833333E+00   0.0000000E+00   0.0000000E+00   0.0000000E+00   0.0000000E+00
  -0.1751750E-01   0.3900568E+00  -0.1466667E+00   0.0000000E+00   0.0000000E+00   0.0000000E+00   0.0000000E+00
  -0.1751750E-01   0.3900568E+00  -0.1100000E+00   0.0000000E+00   0.0000000E+00   0.0000000E+00   0.0000000E+00
  -0.1751750E-01   0.3900568E+00  -0.7333330E-01   0.0000000E+00   0.0000000E+00   0.0000000E+00   0.0000000E+00
  -0.1751750E-01   0.3900568E+00  -0.3666670E-01   0.0000000E+00   0.0000000E+00   0.0000000E+00   0.0000000E+00
  -0.1751750E-01   0.3900568E+00   0.0000000E+00   0.0000000E+00   0.0000000E+00   0.0000000E+00   0.0000000E+00
   0.1751750E-01   0.3900568E+00  -0.2200000E+00   0.0000000E+00   0.0000000E+00   0.0000000E+00   0.0000000E+00
   0.1751750E-01   0.3900568E+00  -0.1833333E+00   0.0000000E+00   0.0000000E+00   0.0000000E+00   0.0000000E+00
   0.1751750E-01   0.3900568E+00  -0.1466667E+00   0.0000000E+00   0.0000000E+00   0.0000000E+00   0.0000000E+00
   0.1751750E-01   0.3900568E+00  -0.1100000E+00   0.0000000E+00   0.0000000E+00   0.0000000E+00   0.0000000E+00
   0.1751750E-01   0.3900568E+00  -0.7333330E-01   0.0000000E+00   0.0000000E+00   0.0000000E+00   0.0000000E+00
   0.1751750E-01   0.3900568E+00  -0.3666670E-01   0.0000000E+00   0.0000000E+00   0.0000000E+00   0.0000000E+00
   0.1751750E-01   0.3900568E+00   0.0000000E+00   0.0000000E+00   0.0000000E+00   0.0000000E+00   0.0000000E+00
  -0.5241140E-01   0.3869163E+00  -0.2200000E+00   0.0000000E+00   0.0000000E+00   0.0000000E+00   0.0000000E+00
  -0.5241140E-01   0.3869163E+00  -0.1833333E+00   0.0000000E+00   0.0000000E+00   0.0000000E+00   0.0000000E+00
  -0.5241140E-01   0.3869163E+00  -0.1466667E+00   0.0000000E+00   0.0000000E+00   0.0000000E+00   0.0000000E+00
  -0.5241140E-01   0.3869163E+00  -0.1100000E+00   0.0000000E+00   0.0000000E+00   0.0000000E+00   0.0000000E+00
  -0.5241140E-01   0.3869163E+00  -0.7333330E-01   0.0000000E+00   0.0000000E+00   0.0000000E+00   0.0000000E+00
  -0.5241140E-01   0.3869163E+00  -0.3666670E-01   0.0000000E+00   0.0000000E+00   0.0000000E+00   0.0000000E+00
  -0.5241140E-01   0.3869163E+00   0.0000000E+00   0.0000000E+00   0.0000000E+00   0.0000000E+00   0.0000000E+00
  -0.1751750E-01   0.3900568E+00  -0.2200000E+00   0.0000000E+00   0.0000000E+00   0.0000000E+00   0.0000000E+00
  -0.1751750E-01   0.3900568E+00  -0.1833333E+00   0.0000000E+00   0.0000000E+00   0.0000000E+00   0.0000000E+00
  -0.1751750E-01   0.3900568E+00  -0.1466667E+00   0.0000000E+00   0.0000000E+00   0.0000000E+00   0.0000000E+00
  -0.1751750E-01   0.3900568E+00  -0.1100000E+00   0.0000000E+00   0.0000000E+00   0.0000000E+00   0.0000000E+00
  -0.1751750E-01   0.3900568E+00  -0.7333330E-01   0.0000000E+00   0.0000000E+00   0.0000000E+00   0.0000000E+00