VARIABLES="w (rad/s)"
"abs(F   1   1)" "angle(F   1   1)"
"abs(F   1   2)" "angle(F   1   2)"
"abs(F   1   3)" "angle(F   1   3)"
"abs(F   1   4)" "angle(F   1   4)"
"abs(F   1   5)" "angle(F   1   5)"
"abs(F   1   6)" "angle(F   1   6)"
Zone t="Diffraction force - beta =   0.000 deg",I=    25,F=POINT
  0.6000000E+00  0.1947683E+02 -0.1570790E+01  0.4248860E-05 -0.3098151E+01  0.1629609E+02 -0.3111053E+01  0.3912494E-06 -0.2740061E+01  0.4617510E+01  0.1570802E+01  0.3028692E-13 -0.2215764E+01
  0.2320833E+01  0.2960810E+03 -0.1552719E+01  0.1593953E-04 -0.2598347E+01  0.2421964E+03 -0.2814292E+01  0.1020669E-04  0.2150144E+01  0.7240178E+02  0.1586633E+01  0.3824410E-12 -0.6137701E+00
  0.4041667E+01  0.8415065E+03 -0.1283470E+01  0.1312828E-03  0.2455493E+01  0.5334277E+03 -0.2470858E+01  0.2744470E-04 -0.1027938E+01  0.2158096E+03  0.1822484E+01  0.7589757E-11  0.1708854E+01
  0.5762500E+01  0.5635727E+03 -0.6970708E+00  0.2019965E-03  0.1613102E+01  0.6003130E+03 -0.2171268E+01  0.6435545E-04  0.1732291E+01  0.1655282E+03  0.2237264E+01  0.3435774E-11  0.1722345E+01
  0.7483334E+01  0.5700775E+03  0.2805894E+01  0.4482556E-04  0.1707202E+01  0.7904791E+03 -0.1749490E+01  0.4084303E-04  0.1433804E+01  0.1320856E+03 -0.3002441E-01  0.7813916E-11 -0.1847098E+01
  0.9204167E+01  0.1060757E+04  0.2964633E+01  0.3601726E-04  0.6054916E+00  0.5579087E+02 -0.1099654E+00  0.3132312E-04  0.1535080E+01  0.2507619E+03 -0.1034580E+00  0.8853620E-12 -0.3043122E+01
  0.1092500E+02  0.3594641E+03  0.3042598E+01  0.1517739E-04 -0.2217141E+01  0.5065903E+02  0.1775536E+00  0.5057108E-05 -0.1500850E+01  0.9502652E+02 -0.1220468E+00  0.3887231E-11  0.2015807E+01
  0.1264583E+02  0.3752544E+03 -0.7708788E-01  0.1091374E-04  0.3121826E+01  0.5937556E+01  0.3278324E+00  0.1673699E-04  0.1212389E+01  0.9495050E+02  0.3110612E+01  0.2727091E-11 -0.1336442E+01
  0.1436667E+02  0.9653893E+02 -0.9828265E-01  0.7329213E-05 -0.1567008E+01  0.9288209E+01  0.2804225E+01  0.5629987E-05 -0.2122500E+01  0.2372501E+02  0.3052055E+01  0.9189807E-12  0.5701761E+00
  0.1608750E+02  0.2196194E+03  0.2522070E+01  0.1670681E-04  0.1514246E+01  0.3822663E-01 -0.5490463E+00  0.1499944E-05 -0.1442485E+01  0.5484093E+02 -0.6193285E+00  0.1092445E-10 -0.1989567E+01
  0.1780833E+02  0.1022043E+03 -0.3481085E-01  0.2121129E-05 -0.2663747E+00  0.2167087E+01  0.2234720E+00  0.7954225E-06 -0.5029231E+00  0.2349728E+02  0.3084273E+01  0.1131700E-10 -0.4179168E-02
  0.1952917E+02  0.2891691E+02  0.2965761E+01  0.3681807E-05  0.2957357E+01  0.4770217E+01 -0.2556210E+01  0.1208713E-05  0.2238611E+01  0.6618794E+01 -0.2100987E+00  0.3774840E-11  0.2712334E+01
  0.2125000E+02  0.4550349E+01  0.2782458E+01  0.4607894E-05 -0.2520896E+01  0.6777500E+01 -0.3317577E+00  0.1070902E-05 -0.3123668E+01  0.1046283E+01 -0.4051671E+00  0.3663796E-11  0.1025232E+01
  0.2297083E+02  0.1079887E+02 -0.5307668E+00  0.2762839E-05  0.1225697E+01  0.5032797E+01  0.2727461E+01  0.3122106E-06  0.1376521E+00  0.2511994E+01  0.2559212E+01  0.1846470E-11  0.2407151E+01
  0.2469167E+02  0.3201891E+01  0.2394767E+01  0.2759539E-05 -0.2063196E+01  0.3855999E+01 -0.1514212E+00  0.6720625E-06 -0.1153638E+01  0.7620894E+00 -0.8161359E+00  0.4565451E-12  0.6008345E+00
  0.2641250E+02  0.9256625E+01  0.2114072E+01  0.8180165E-06 -0.2579017E+01  0.5902060E+00  0.4463550E+00  0.1943793E-06  0.2751080E+01  0.2358544E+01 -0.1131637E+01  0.2499184E-11 -0.9944896E+00
  0.2813334E+02  0.2513623E+02 -0.1606864E+01  0.2475663E-05  0.1187369E+01  0.1531453E+00 -0.2294888E+00  0.2354994E-06  0.2799760E+00  0.6763531E+01  0.1489756E+01  0.5272382E-12  0.2223247E+01
  0.2985417E+02  0.5158328E+02  0.1631838E+01  0.6122931E-06  0.3045691E+01  0.6022287E-01 -0.1231964E-01  0.1498789E-07  0.2858192E+01  0.1313787E+02 -0.1510388E+01  0.2627838E-11 -0.1491190E+01
  0.3157500E+02  0.1370200E+02 -0.1345719E+01  0.3740830E-06  0.2794983E+01  0.9712235E+00  0.3020093E+01  0.3074180E-06 -0.2421783E+01  0.3431781E+01  0.1779913E+01  0.3544482E-11 -0.1752112E+01
  0.3329583E+02  0.2641404E+02 -0.1647669E+01  0.2223147E-06 -0.1845387E+01  0.6657172E+00  0.8556712E-01  0.5374097E-06 -0.3680715E-01  0.6651857E+01  0.1488932E+01  0.1524460E-12  0.1583541E+01
  0.3501667E+02  0.2051415E+02  0.1672532E+01  0.2956323E-06  0.2479809E+01  0.8861776E+00 -0.5873113E-01  0.1912045E-07 -0.1404978E+00  0.5077744E+01 -0.1473197E+01  0.9217693E-12 -0.2931500E+01
  0.3673750E+02  0.2416879E+02  0.1515634E+01  0.8690606E-06 -0.3996255E+00  0.5606594E+00 -0.3087381E+01  0.1910718E-06  0.9710345E-01  0.5980759E+01 -0.1626335E+01  0.3276564E-12  0.2542172E+01
  0.3845834E+02  0.1716745E+01 -0.1543742E+01  0.1651138E-06  0.2375424E+01  0.1108189E+01  0.3133029E+01  0.9571831E-07 -0.6218173E-01  0.4219905E+00  0.1595569E+01  0.3958410E-12  0.1453571E+01
  0.4017917E+02  0.1577895E+02 -0.1540898E+01  0.1452484E-05 -0.2984996E-01  0.3987890E+00  0.3118069E+01  0.6517055E-07 -0.7005864E-01  0.3862593E+01  0.1600383E+01  0.1634025E-11 -0.1660740E+01
  0.4190000E+02  0.1638426E+02 -0.1566885E+01  0.8239616E-06  0.1912121E+00  0.4953035E+00  0.1015180E-01  0.7131310E-06 -0.2285634E-01  0.4005090E+01  0.1574374E+01  0.5762133E-13  0.1633095E+01
