VARIABLES="w (rad/s)"
"abs(F   1   1)" "angle(F   1   1)"
"abs(F   1   2)" "angle(F   1   2)"
"abs(F   1   3)" "angle(F   1   3)"
"abs(F   1   4)" "angle(F   1   4)"
"abs(F   1   5)" "angle(F   1   5)"
"abs(F   1   6)" "angle(F   1   6)"
Zone t="Diffraction force - beta =   0.000 deg",I=    25,F=POINT
  0.6000000E+00  0.6184179E+02 -0.1570794E+01  0.1072997E-02 -0.5534514E-05  0.2632652E+04 -0.1890107E-03  0.1749425E-03 -0.3139690E+01  0.1286285E+02  0.1570790E+01  0.8680254E-11  0.1808635E-01
  0.2320833E+01  0.8889767E+03 -0.1564776E+01  0.4081170E-03 -0.3112514E+01  0.2102446E+04 -0.3704308E-01  0.1139929E-04  0.1160702E+01  0.1904543E+03  0.1576816E+01  0.2570015E-11 -0.2117380E+01
  0.4041667E+01  0.2328050E+04 -0.1468181E+01  0.2898047E-03  0.2824386E+01  0.1299556E+04 -0.2579840E+00  0.2198937E-03 -0.1125585E+00  0.5245551E+03  0.1673434E+01  0.8266362E-11 -0.1991377E+01
  0.5762500E+01  0.2543501E+04 -0.1400082E+01  0.4134945E-03  0.2557238E+01  0.7173043E+03 -0.7621823E+00  0.7695363E-04  0.2200631E+01  0.6025921E+03  0.1741442E+01  0.5242284E-11 -0.7048039E+00
  0.7483334E+01  0.1695270E+04 -0.1893893E+01  0.9561640E-04  0.2524621E+01  0.7803590E+03 -0.1491260E+01  0.4978211E-04  0.1273996E+01  0.4151806E+03  0.1247180E+01  0.1041703E-10 -0.1580346E+01
  0.9204167E+01  0.1089037E+04 -0.2853617E+01  0.3856541E-04  0.9150910E+00  0.1524684E+02 -0.2728357E+01  0.3364146E-04  0.1171568E+01  0.2601189E+03  0.2877901E+00  0.1335726E-10  0.1484513E+01
  0.1092500E+02  0.6795810E+03  0.2125110E+01  0.1190281E-04 -0.2736665E+01  0.1074858E+02  0.2158100E+01  0.2374050E-04 -0.2915406E+01  0.1791754E+03 -0.1016424E+01  0.1243277E-10  0.1623829E+01
  0.1264583E+02  0.4524859E+03  0.5973046E+00  0.8360541E-05 -0.1467069E+01  0.4447595E+01  0.4443383E+00  0.1536692E-04  0.1301777E+01  0.1149081E+03 -0.2542629E+01  0.1230129E-10 -0.1517703E+01
  0.1436667E+02  0.3172258E+03 -0.1263110E+01  0.2431718E-04 -0.2758467E+01  0.5340017E+01  0.2528089E+01  0.6283483E-05 -0.2335165E+01  0.7813821E+02  0.1878019E+01  0.1744752E-10  0.1487773E+01
  0.1608750E+02  0.2355249E+03  0.2432839E+01  0.2076564E-04  0.2315164E+01  0.2108037E+00 -0.3046815E+01  0.2749017E-05 -0.2464346E+01  0.5882158E+02 -0.7087679E+00  0.1355642E-10 -0.2275390E+01
  0.1780833E+02  0.1445225E+03  0.7858913E+00  0.9658689E-06  0.2657220E-01  0.2058078E+01  0.2355264E+00  0.8451278E-06 -0.1603979E+00  0.3313104E+02 -0.2357541E+01  0.1095241E-10 -0.2372956E+00
  0.1952917E+02  0.1139824E+03 -0.1823254E+01  0.2278086E-05 -0.3101380E+00  0.4750196E+01 -0.2553413E+01  0.9614929E-06  0.1975581E+01  0.2597202E+02  0.1318901E+01  0.5899490E-11  0.2290482E+01
  0.2125000E+02  0.9122353E+02  0.1617512E+01  0.7079411E-05 -0.2782736E+01  0.6774233E+01 -0.3319238E+00  0.4547331E-06 -0.2762805E+01  0.2072478E+02 -0.1524382E+01  0.2856964E-11  0.8886172E+00
  0.2297083E+02  0.7287728E+02 -0.1442653E+01  0.3199518E-05  0.5678852E+00  0.5032285E+01  0.2727416E+01  0.1067376E-05 -0.1454395E+00  0.1649902E+02  0.1698295E+01  0.8184564E-11 -0.1726327E+01
  0.2469167E+02  0.5427046E+02  0.1614106E+01  0.3069688E-05 -0.2115513E+01  0.3855913E+01 -0.1514246E+00  0.6168066E-06 -0.9631475E+00  0.1214716E+02 -0.1527805E+01  0.3384459E-11 -0.1412634E+01
  0.2641250E+02  0.3122879E+02 -0.1724631E+01  0.9724230E-06 -0.3045214E+01  0.5902153E+00  0.4463475E+00  0.1200098E-06 -0.2997123E+01  0.6523782E+01  0.1416469E+01  0.1428370E-11 -0.5256452E+00
  0.2813334E+02  0.4845542E+01 -0.1758964E+01  0.2416290E-05  0.1341311E+01  0.1531446E+00 -0.2294899E+00  0.2015550E-06  0.3452857E+00  0.2320734E+01  0.1332627E+01  0.9455650E-12  0.1791680E+01
  0.2985417E+02  0.5408476E+02  0.1629012E+01  0.1420661E-06  0.2937256E+01  0.6022286E-01 -0.1231965E-01  0.1180894E-06 -0.3113986E+01  0.1368744E+02 -0.1512816E+01  0.1743788E-11 -0.1384899E+01
  0.3157500E+02  0.3026080E+02 -0.1469567E+01  0.6306178E-06  0.2877959E+01  0.9712235E+00  0.3020093E+01  0.5720677E-06 -0.2747937E+01  0.7065155E+01  0.1671805E+01  0.4035486E-11 -0.1708477E+01
  0.3329583E+02  0.1771240E+02 -0.1685574E+01  0.1141592E-06 -0.1642139E+01  0.6657172E+00  0.8556712E-01  0.5538815E-06  0.1463436E-01  0.4747405E+01  0.1455967E+01  0.3626456E-12  0.1418833E+01
  0.3501667E+02  0.2843053E+02  0.1644143E+01  0.2699960E-06  0.2172013E+01  0.8861776E+00 -0.5873113E-01  0.5981916E-07 -0.3145970E+00  0.6809467E+01 -0.1498069E+01  0.9203349E-12  0.2916219E+01
  0.3673750E+02  0.2020917E+02  0.1504812E+01  0.8027220E-06 -0.2992094E+00  0.5606594E+00 -0.3087381E+01  0.1420877E-06  0.2105818E+00  0.5115286E+01 -0.1635744E+01  0.5433949E-12  0.2890309E+01
  0.3845834E+02  0.7595315E+01 -0.1564682E+01  0.1200928E-06  0.1553347E+01  0.1108189E+01  0.3133029E+01  0.3935278E-07 -0.3223652E+00  0.1706347E+01  0.1576923E+01  0.4650184E-12  0.1315681E+01
  0.4017917E+02  0.1760271E+02 -0.1543997E+01  0.1152970E-05 -0.8617093E-01  0.3987890E+00  0.3118069E+01  0.8759771E-07 -0.5210285E-01  0.4260943E+01  0.1597616E+01  0.1672472E-11 -0.1624592E+01
  0.4190000E+02  0.1446590E+02 -0.1566366E+01  0.1367326E-05  0.6962696E-01  0.4953035E+00  0.1015180E-01  0.6847067E-06 -0.2210468E-01  0.3586147E+01  0.1574792E+01  0.1290020E-12  0.1488352E+01
