VARIABLES="w (rad/s)"
"abs(F   1   1)" "angle(F   1   1)"
"abs(F   1   2)" "angle(F   1   2)"
"abs(F   1   3)" "angle(F   1   3)"
"abs(F   1   4)" "angle(F   1   4)"
"abs(F   1   5)" "angle(F   1   5)"
"abs(F   1   6)" "angle(F   1   6)"
Zone t="FKforce - beta =   0.000",I=    25,F=POINT
  0.6000000E+00  0.4236496E+02 -0.1570796E+01  0.1077242E-02  0.1657762E-03  0.2648941E+04  0.1068812E-09  0.1745821E-03 -0.3140562E+01  0.8245338E+01  0.1570783E+01  0.8698930E-11  0.2083032E-01
  0.2320833E+01  0.5929280E+03 -0.1570796E+01  0.3943163E-03 -0.3132396E+01  0.2330343E+04  0.5115525E-10  0.1031178E-04  0.1865907E+00  0.1180582E+03  0.1570796E+01  0.2572793E-11 -0.2266242E+01
  0.4041667E+01  0.1508795E+04 -0.1570796E+01  0.1739200E-03  0.3100048E+01  0.1674418E+04 -0.5695558E-08  0.2043282E-03 -0.5870703E-02  0.3127844E+03  0.1570796E+01  0.1524273E-10 -0.1724296E+01
  0.5762500E+01  0.2144728E+04 -0.1570796E+01  0.3373658E-03  0.3063577E+01  0.8580442E+03 -0.8335885E-08  0.3500389E-04 -0.3103590E+01  0.4637327E+03  0.1570796E+01  0.8154731E-11 -0.9844854E+00
  0.7483334E+01  0.1795351E+04 -0.1570796E+01  0.7271583E-04  0.2990969E+01  0.2025048E+03  0.9771988E-07  0.1147707E-04  0.6720036E+00  0.3975945E+03  0.1570796E+01  0.3540329E-11 -0.9594127E+00
  0.9204167E+01  0.4960328E+03 -0.1570796E+01  0.1177171E-04  0.2115547E+01  0.6941734E+02 -0.3141592E+01  0.1196213E-04 -0.2568555E-01  0.9972763E+02  0.1570796E+01  0.1354789E-10  0.1420230E+01
  0.1092500E+02  0.5422950E+03  0.1570796E+01  0.7641686E-05  0.1808489E+01  0.5581860E+02 -0.3141593E+01  0.2349090E-04 -0.3129699E+01  0.1407716E+03 -0.1570796E+01  0.8964222E-11  0.1457404E+01
  0.1264583E+02  0.2833842E+03  0.1570796E+01  0.1454261E-04 -0.6269073E+00  0.1605624E+01  0.3141591E+01  0.1982619E-05 -0.2693334E+01  0.6772489E+02 -0.1570796E+01  0.9631427E-11 -0.1568768E+01
  0.1436667E+02  0.2928551E+03 -0.1570796E+01  0.2265053E-04 -0.3063762E+01  0.4398436E+01  0.1151863E-06  0.1421605E-05  0.2958280E+01  0.7235812E+02  0.1570796E+01  0.1690479E-10  0.1530958E+01
  0.1608750E+02  0.2577900E+02  0.1570796E+01  0.1507888E-04 -0.3048172E+01  0.2424658E+00 -0.3141592E+01  0.2346049E-05 -0.3041231E+01  0.6452367E+01 -0.1570796E+01  0.4352451E-11 -0.3061591E+01
  0.1780833E+02  0.1058003E+03  0.1570796E+01  0.1228491E-05  0.2646179E+01  0.1119417E+00  0.3141592E+01  0.2838509E-06  0.1065719E+01  0.2474174E+02 -0.1570797E+01  0.2615002E-11 -0.1830457E+01
  0.1952917E+02  0.1154277E+03 -0.1570796E+01  0.5948744E-05 -0.2323416E+00  0.2404298E-01  0.1002287E-05  0.3755795E-06 -0.1746492E+00  0.2653278E+02  0.1570796E+01  0.2901516E-11  0.1728705E+01
  0.2125000E+02  0.8952472E+02  0.1570796E+01  0.2886549E-05  0.3074457E+01  0.3455041E-02 -0.3141592E+01  0.6651267E-06 -0.2258776E+00  0.2029004E+02 -0.1570796E+01  0.9198003E-12 -0.1679589E+01
  0.2297083E+02  0.6681342E+02 -0.1570796E+01  0.1969730E-05 -0.4626234E+00  0.5593143E-03  0.2341568E-05  0.7725305E-06 -0.2585673E+00  0.1498347E+02  0.1570796E+01  0.9323793E-11 -0.1559788E+01
  0.2469167E+02  0.5204449E+02  0.1570796E+01  0.3455025E-06 -0.2546387E+01  0.8652157E-04 -0.3141592E+01  0.1343495E-06  0.9342228E+00  0.1158075E+02 -0.1570796E+01  0.3603714E-11 -0.1527362E+01
  0.2641250E+02  0.3878386E+02 -0.1570796E+01  0.4400202E-06  0.2248698E+01  0.1027495E-04  0.1084318E-05  0.1097704E-06 -0.9817427E+00  0.8580988E+01  0.1570796E+01  0.1384580E-11  0.1662173E+01
  0.2813334E+02  0.2035987E+02  0.1570796E+01  0.3807964E-06  0.2991226E+01  0.7283739E-06 -0.3141591E+01  0.3680502E-07  0.3056085E+01  0.4486110E+01 -0.1570797E+01  0.5161568E-12  0.1350203E+01
  0.2985417E+02  0.2505936E+01  0.1570801E+01  0.4713123E-06 -0.6327479E-01  0.1086079E-07  0.3141569E+01  0.1039218E-06 -0.3069837E+01  0.5505354E+00 -0.1570791E+01  0.9128344E-12  0.1446323E+01
  0.3157500E+02  0.1674949E+02 -0.1570796E+01  0.2596794E-06  0.2997639E+01  0.8230977E-08  0.1564649E-05  0.2976272E-06 -0.3085238E+01  0.3672125E+01  0.1570797E+01  0.5179921E-12 -0.1405370E+01
  0.3329583E+02  0.8740176E+01  0.1570797E+01  0.1128823E-06  0.1090626E+01  0.5025915E-09 -0.3141591E+01  0.3253960E-07  0.1029123E+01  0.1913439E+01 -0.1570796E+01  0.2137294E-12  0.1301615E+01
  0.3501667E+02  0.7946012E+01  0.1570796E+01  0.9033084E-07  0.4708519E+00  0.3098057E-10 -0.3141592E+01  0.4112136E-07 -0.3952279E+00  0.1737888E+01 -0.1570797E+01  0.3979285E-12  0.1559636E+01
  0.3673750E+02  0.3966836E+01 -0.1570798E+01  0.1069075E-06  0.1889792E+01  0.2485951E-11 -0.3489054E-06  0.5242782E-07  0.2926778E+01  0.8670363E+00  0.1570795E+01  0.2605862E-12 -0.2949544E+01
  0.3845834E+02  0.5879056E+01 -0.1570796E+01  0.1212008E-06  0.4612112E-01  0.1500016E-12  0.3811607E-06  0.5857160E-07 -0.3030057E+01  0.1284454E+01  0.1570797E+01  0.9099386E-13  0.6747409E+00
  0.4017917E+02  0.1824491E+01 -0.1570798E+01  0.3082527E-06 -0.2959307E+01  0.1553918E-14 -0.3141590E+01  0.2246816E-07  0.3044657E-13  0.3985079E+00  0.1570795E+01  0.7105427E-13 -0.6435011E+00
  0.4190000E+02  0.1918381E+01  0.1570795E+01  0.5584613E-06 -0.1102889E+00  0.8858924E-16 -0.3141577E+01  0.2842918E-07  0.3100632E+01  0.4189458E+00 -0.1570798E+01  0.7246143E-13  0.1373401E+01
