 VARIABLES="Time (s)"
"AddedMass    1" "IRF    1"
"AddedMass    2" "IRF    2"
"AddedMass    3" "IRF    3"
"AddedMass    4" "IRF    4"
"AddedMass    5" "IRF    5"
"AddedMass    6" "IRF    6"
Zone t="DoF    1",I=   100,F=POINT
  0.0000000E+00  0.2217494E+02  0.1666967E+04 -0.2040289E-08  0.1646819E-05  0.3277217E-05 -0.4895619E-04  0.9734253E-08 -0.6335242E-08 -0.5189042E+01 -0.4031033E+03  0.5250275E-14 -0.2791860E-11
  0.1000000E+00  0.2217494E+02  0.8591683E+03 -0.2040289E-08  0.1241067E-05  0.3277217E-05 -0.3214994E-04  0.9734253E-08  0.1090287E-06 -0.5189042E+01 -0.2088624E+03  0.5250275E-14 -0.1749459E-11
  0.2000000E+00  0.2217494E+02 -0.2234248E+03 -0.2040289E-08  0.1834173E-05  0.3277217E-05 -0.1687190E-04  0.9734253E-08  0.1927020E-06 -0.5189042E+01  0.5934242E+02  0.5250275E-14  0.3000021E-12
  0.3000000E+00  0.2217494E+02 -0.6785643E+03 -0.2040289E-08  0.1880016E-05  0.3277217E-05 -0.9609081E-05  0.9734253E-08  0.4410695E-07 -0.5189042E+01  0.1707779E+03  0.5250275E-14  0.2426943E-11
  0.4000000E+00  0.2217494E+02 -0.7155924E+03 -0.2040289E-08 -0.5887568E-06  0.3277217E-05 -0.7455918E-05  0.9734253E-08  0.1127058E-06 -0.5189042E+01  0.1718618E+03  0.5250275E-14  0.3318820E-11
  0.5000000E+00  0.2217494E+02 -0.4692281E+03 -0.2040289E-08 -0.3694005E-05  0.3277217E-05  0.1884029E-05  0.9734253E-08  0.1266850E-06 -0.5189042E+01  0.1073669E+03  0.5250275E-14  0.9844435E-12
  0.6000000E+00  0.2217494E+02 -0.1852549E+03 -0.2040289E-08 -0.5114648E-05  0.3277217E-05  0.8921545E-05  0.9734253E-08 -0.9383787E-07 -0.5189042E+01  0.3939692E+02  0.5250275E-14 -0.1380179E-11
  0.7000000E+00  0.2217494E+02  0.5256856E+01 -0.2040289E-08 -0.3482960E-05  0.3277217E-05  0.9641813E-05  0.9734253E-08 -0.2702907E-06 -0.5189042E+01 -0.2738493E+01  0.5250275E-14 -0.1513710E-11
  0.8000000E+00  0.2217494E+02  0.1593730E+03 -0.2040289E-08  0.2128243E-06  0.3277217E-05  0.1735377E-04  0.9734253E-08 -0.6193861E-06 -0.5189042E+01 -0.3813218E+02  0.5250275E-14 -0.1143367E-11
  0.9000000E+00  0.2217494E+02  0.1908748E+03 -0.2040289E-08  0.4083004E-05  0.3277217E-05  0.3372357E-04  0.9734253E-08 -0.3965699E-06 -0.5189042E+01 -0.4542237E+02  0.5250275E-14 -0.1545574E-11
  0.1000000E+01  0.2217494E+02  0.1907116E+03 -0.2040289E-08  0.6160459E-05  0.3277217E-05  0.3277680E-04  0.9734253E-08 -0.2515103E-06 -0.5189042E+01 -0.4728096E+02  0.5250275E-14 -0.1342830E-11
  0.1100000E+01  0.2217494E+02  0.1178495E+03 -0.2040289E-08  0.3124387E-05  0.3277217E-05  0.1768891E-04  0.9734253E-08 -0.5721497E-08 -0.5189042E+01 -0.3084270E+02  0.5250275E-14 -0.7607667E-12
  0.1200000E+01  0.2217494E+02  0.6839862E+02 -0.2040289E-08 -0.2713846E-05  0.3277217E-05 -0.3050588E-05  0.9734253E-08  0.6755050E-06 -0.5189042E+01 -0.1664235E+02  0.5250275E-14  0.1277534E-11
  0.1300000E+01  0.2217494E+02  0.1089060E+02 -0.2040289E-08 -0.5455515E-05  0.3277217E-05 -0.1243606E-04  0.9734253E-08  0.9519742E-06 -0.5189042E+01  0.1649290E+01  0.5250275E-14  0.3176171E-11
  0.1400000E+01  0.2217494E+02 -0.1414751E+02 -0.2040289E-08 -0.2693257E-05  0.3277217E-05 -0.1433704E-04  0.9734253E-08  0.5175667E-06 -0.5189042E+01  0.9136736E+01  0.5250275E-14  0.2450304E-11
  0.1500000E+01  0.2217494E+02 -0.7201289E+02 -0.2040289E-08  0.1996561E-05  0.3277217E-05 -0.1142319E-04  0.9734253E-08  0.6854545E-07 -0.5189042E+01  0.1925393E+02  0.5250275E-14 -0.4375865E-12
  0.1600000E+01  0.2217494E+02 -0.6274398E+02 -0.2040289E-08  0.2463120E-05  0.3277217E-05  0.1194384E-04  0.9734253E-08 -0.5320282E-06 -0.5189042E+01  0.1238875E+02  0.5250275E-14 -0.1840292E-11
  0.1700000E+01  0.2217494E+02 -0.7502467E+02 -0.2040289E-08  0.1450895E-05  0.3277217E-05  0.3337765E-04  0.9734253E-08 -0.1117921E-05 -0.5189042E+01  0.1362456E+02  0.5250275E-14 -0.1564370E-11
  0.1800000E+01  0.2217494E+02 -0.2790390E+02 -0.2040289E-08  0.6382122E-06  0.3277217E-05  0.2696753E-04  0.9734253E-08 -0.8399473E-06 -0.5189042E+01  0.4295298E+01  0.5250275E-14 -0.7048219E-12
  0.1900000E+01  0.2217494E+02 -0.1309049E+02 -0.2040289E-08  0.3360263E-06  0.3277217E-05 -0.9951755E-05  0.9734253E-08  0.3228620E-06 -0.5189042E+01  0.3784763E+01  0.5250275E-14 -0.1035425E-12
  0.2000000E+01  0.2217494E+02  0.4142485E+02 -0.2040289E-08 -0.6730787E-06  0.3277217E-05 -0.2839930E-04  0.9734253E-08  0.9572643E-06 -0.5189042E+01 -0.5677566E+01  0.5250275E-14  0.1227469E-11
  0.2100000E+01  0.2217494E+02  0.6504646E+02 -0.2040289E-08 -0.2852561E-05  0.3277217E-05 -0.1708626E-04  0.9734253E-08  0.8168934E-06 -0.5189042E+01 -0.1108062E+02  0.5250275E-14  0.2425506E-11
  0.2200000E+01  0.2217494E+02  0.8855373E+02 -0.2040289E-08 -0.3579941E-05  0.3277217E-05  0.2575749E-05  0.9734253E-08  0.4325106E-06 -0.5189042E+01 -0.2044803E+02  0.5250275E-14  0.1813203E-11
  0.2300000E+01  0.2217494E+02  0.7624171E+02 -0.2040289E-08  0.7791635E-06  0.3277217E-05  0.1363095E-04  0.9734253E-08 -0.4544498E-07 -0.5189042E+01 -0.2274594E+02  0.5250275E-14 -0.1196919E-11
  0.2400000E+01  0.2217494E+02  0.5372485E+02 -0.2040289E-08  0.5365277E-05  0.3277217E-05  0.1892887E-04  0.9734253E-08 -0.7791296E-06 -0.5189042E+01 -0.1782693E+02  0.5250275E-14 -0.3013366E-11
  0.2500000E+01  0.2217494E+02  0.1929776E+02 -0.2040289E-08  0.4911198E-05  0.3277217E-05  0.1928531E-04  0.9734253E-08 -0.8242023E-06 -0.5189042E+01 -0.6510659E+01  0.5250275E-14 -0.2225632E-11
  0.2600000E+01  0.2217494E+02 -0.4829354E+02 -0.2040289E-08 -0.2731152E-06  0.3277217E-05  0.1028818E-06  0.9734253E-08 -0.3480991E-06 -0.5189042E+01  0.1271166E+02  0.5250275E-14 -0.5950659E-12
  0.2700000E+01  0.2217494E+02 -0.1598807E+03 -0.2040289E-08 -0.4940288E-05  0.3277217E-05 -0.2043614E-04  0.9734253E-08 -0.1651929E-06 -0.5189042E+01  0.3907158E+02  0.5250275E-14  0.2526941E-12
  0.2800000E+01  0.2217494E+02 -0.2345487E+03 -0.2040289E-08 -0.5374627E-05  0.3277217E-05 -0.3139856E-04  0.9734253E-08  0.1506804E-06 -0.5189042E+01  0.5541762E+02  0.5250275E-14  0.9000644E-12
  0.2900000E+01  0.2217494E+02 -0.3046258E+03 -0.2040289E-08 -0.3200770E-05  0.3277217E-05 -0.2379318E-04  0.9734253E-08  0.4937361E-06 -0.5189042E+01  0.7163094E+02  0.5250275E-14  0.8966796E-12
  0.3000000E+01  0.2217494E+02 -0.2461282E+03 -0.2040289E-08  0.7594610E-06  0.3277217E-05 -0.2112082E-04  0.9734253E-08  0.3575363E-06 -0.5189042E+01  0.5889285E+02  0.5250275E-14  0.1862603E-11
  0.3100000E+01  0.2217494E+02 -0.1137365E+03 -0.2040289E-08  0.3841496E-05  0.3277217E-05 -0.2292057E-04  0.9734253E-08  0.2624049E-06 -0.5189042E+01  0.3177770E+02  0.5250275E-14  0.2644344E-11
  0.3200000E+01  0.2217494E+02  0.2198978E+03 -0.2040289E-08  0.4443162E-05  0.3277217E-05 -0.2027129E-04  0.9734253E-08  0.2706602E-07 -0.5189042E+01 -0.4540667E+02  0.5250275E-14  0.5237988E-12
  0.3300000E+01  0.2217494E+02  0.6693839E+03 -0.2040289E-08  0.2480130E-05  0.3277217E-05 -0.1228177E-04  0.9734253E-08  0.2108873E-07 -0.5189042E+01 -0.1569610E+03  0.5250275E-14 -0.2417425E-11
  0.3400000E+01  0.2217494E+02  0.1000047E+04 -0.2040289E-08 -0.1037928E-06  0.3277217E-05 -0.1260157E-04  0.9734253E-08  0.5512808E-07 -0.5189042E+01 -0.2457475E+03  0.5250275E-14 -0.2836127E-11
  0.3500000E+01  0.2217494E+02  0.9164719E+03 -0.2040289E-08 -0.4739228E-06  0.3277217E-05 -0.7471795E-05  0.9734253E-08 -0.1326929E-06 -0.5189042E+01 -0.2258539E+03  0.5250275E-14 -0.1730490E-11
  0.3600000E+01  0.2217494E+02 -0.1913766E+03 -0.2040289E-08 -0.5454598E-06  0.3277217E-05  0.1177202E-04  0.9734253E-08 -0.6996311E-07 -0.5189042E+01  0.4664108E+02  0.5250275E-14  0.4619082E-12
  0.3700000E+01  0.2217494E+02 -0.1441279E+04 -0.2040289E-08 -0.1195061E-05  0.3277217E-05  0.3824430E-04  0.9734253E-08  0.4051110E-07 -0.5189042E+01  0.3489819E+03  0.5250275E-14  0.2425661E-11
  0.3800000E+01  0.2217494E+02 -0.1207780E+04 -0.2040289E-08 -0.1031075E-05  0.3277217E-05  0.3411237E-04  0.9734253E-08 -0.8928390E-07 -0.5189042E+01  0.2947516E+03  0.5250275E-14  0.2546635E-11
  0.3900000E+01  0.2217494E+02 -0.4073636E+03 -0.2040289E-08 -0.2450062E-05  0.3277217E-05  0.2647501E-04  0.9734253E-08 -0.1829753E-06 -0.5189042E+01  0.9368304E+02  0.5250275E-14  0.1299847E-11
  0.4000000E+01  0.2217494E+02  0.1795599E+03 -0.2040289E-08 -0.3438754E-05  0.3277217E-05  0.2359665E-04  0.9734253E-08 -0.8298372E-07 -0.5189042E+01 -0.5183662E+02  0.5250275E-14 -0.1269551E-11
  0.4100000E+01  0.2217494E+02  0.4868696E+03 -0.2040289E-08 -0.1862124E-05  0.3277217E-05  0.2290519E-04  0.9734253E-08 -0.2078591E-06 -0.5189042E+01 -0.1204683E+03  0.5250275E-14 -0.3392939E-11
  0.4200000E+01  0.2217494E+02  0.4805023E+03 -0.2040289E-08  0.1509719E-05  0.3277217E-05  0.1670124E-04  0.9734253E-08 -0.2815883E-06 -0.5189042E+01 -0.1131670E+03  0.5250275E-14 -0.2054114E-11
  0.4300000E+01  0.2217494E+02  0.3457614E+03 -0.2040289E-08  0.4713013E-05  0.3277217E-05  0.9632122E-05  0.9734253E-08 -0.1605904E-06 -0.5189042E+01 -0.7897495E+02  0.5250275E-14 -0.1896141E-13
  0.4400000E+01  0.2217494E+02  0.1939723E+03 -0.2040289E-08  0.5114360E-05  0.3277217E-05  0.1007483E-04  0.9734253E-08  0.2793764E-07 -0.5189042E+01 -0.4464902E+02  0.5250275E-14  0.5468878E-12
  0.4500000E+01  0.2217494E+02  0.2756007E+02 -0.2040289E-08  0.2907812E-05  0.3277217E-05  0.1502813E-05  0.9734253E-08  0.5269949E-06 -0.5189042E+01 -0.6130324E+01  0.5250275E-14  0.6742574E-12
  0.4600000E+01  0.2217494E+02 -0.7044360E+02 -0.2040289E-08 -0.1492846E-05  0.3277217E-05 -0.2061216E-04  0.9734253E-08  0.4661161E-06 -0.5189042E+01  0.1650081E+02  0.5250275E-14  0.1437779E-11
  0.4700000E+01  0.2217494E+02 -0.1357678E+03 -0.2040289E-08 -0.5770595E-05  0.3277217E-05 -0.3165708E-04  0.9734253E-08  0.5814564E-06 -0.5189042E+01  0.3437648E+02  0.5250275E-14  0.1962162E-11
  0.4800000E+01  0.2217494E+02 -0.1159107E+03 -0.2040289E-08 -0.5168215E-05  0.3277217E-05 -0.2547436E-04  0.9734253E-08  0.4590117E-06 -0.5189042E+01  0.3155980E+02  0.5250275E-14  0.2093570E-11
  0.4900000E+01  0.2217494E+02 -0.1115769E+03 -0.2040289E-08  0.1375391E-06  0.3277217E-05 -0.1041662E-04  0.9734253E-08 -0.2930980E-06 -0.5189042E+01  0.2960897E+02  0.5250275E-14  0.2243487E-12
  0.5000000E+01  0.2217494E+02 -0.5975438E+02 -0.2040289E-08  0.4489004E-05  0.3277217E-05  0.4024594E-05  0.9734253E-08 -0.8207538E-06 -0.5189042E+01  0.1206958E+02  0.5250275E-14 -0.2485002E-11
  0.5100000E+01  0.2217494E+02 -0.5068888E+02 -0.2040289E-08  0.3788746E-05  0.3277217E-05  0.1244540E-04  0.9734253E-08 -0.7848065E-06 -0.5189042E+01  0.6578269E+01  0.5250275E-14 -0.3000330E-11
  0.5200000E+01  0.2217494E+02  0.2654881E+02 -0.2040289E-08 -0.3411098E-06  0.3277217E-05  0.2011841E-04  0.9734253E-08 -0.5676724E-06 -0.5189042E+01 -0.1040214E+02  0.5250275E-14 -0.8227906E-12
  0.5300000E+01  0.2217494E+02  0.3544841E+02 -0.2040289E-08 -0.1511825E-05  0.3277217E-05 -0.5157804E-06  0.9734253E-08  0.3344953E-07 -0.5189042E+01 -0.8080787E+01  0.5250275E-14  0.9125411E-12
  0.5400000E+01  0.2217494E+02  0.7380892E+02 -0.2040289E-08 -0.1475785E-05  0.3277217E-05 -0.3022865E-04  0.9734253E-08  0.9790189E-06 -0.5189042E+01 -0.1420302E+02  0.5250275E-14  0.1364299E-11
  0.5500000E+01  0.2217494E+02  0.5768375E+02 -0.2040289E-08 -0.1241714E-05  0.3277217E-05 -0.3728388E-04  0.9734253E-08  0.1165623E-05 -0.5189042E+01 -0.1027852E+02  0.5250275E-14  0.1209464E-11
  0.5600000E+01  0.2217494E+02  0.4869057E+02 -0.2040289E-08 -0.1316899E-05  0.3277217E-05 -0.7705702E-05  0.9734253E-08  0.2418973E-06 -0.5189042E+01 -0.1026813E+02  0.5250275E-14  0.1004631E-11
  0.5700000E+01  0.2217494E+02  0.1467061E+02 -0.2040289E-08 -0.6955477E-06  0.3277217E-05  0.1875006E-04  0.9734253E-08 -0.5466019E-06 -0.5189042E+01 -0.6569198E+01  0.5250275E-14 -0.3642856E-12
  0.5800000E+01  0.2217494E+02 -0.3805416E+02 -0.2040289E-08  0.2458846E-05  0.3277217E-05  0.1713411E-04  0.9734253E-08 -0.8016966E-06 -0.5189042E+01  0.3701370E+01  0.5250275E-14 -0.2419743E-11
  0.5900000E+01  0.2217494E+02 -0.6526486E+02 -0.2040289E-08  0.4692682E-05  0.3277217E-05  0.5871913E-05  0.9734253E-08 -0.7734104E-06 -0.5189042E+01  0.1212995E+02  0.5250275E-14 -0.2894659E-11
  0.6000000E+01  0.2217494E+02 -0.1028602E+03 -0.2040289E-08  0.1583191E-05  0.3277217E-05 -0.8336055E-05  0.9734253E-08 -0.4645701E-06 -0.5189042E+01  0.2677777E+02  0.5250275E-14 -0.4088043E-12
  0.6100000E+01  0.2217494E+02 -0.1016709E+03 -0.2040289E-08 -0.4073019E-05  0.3277217E-05 -0.1971602E-04  0.9734253E-08  0.3736693E-06 -0.5189042E+01  0.2859377E+02  0.5250275E-14  0.2034356E-11
  0.6200000E+01  0.2217494E+02 -0.1134823E+03 -0.2040289E-08 -0.6134891E-05  0.3277217E-05 -0.3104269E-04  0.9734253E-08  0.6973363E-06 -0.5189042E+01  0.3010074E+02  0.5250275E-14  0.2322620E-11
  0.6300000E+01  0.2217494E+02 -0.6879401E+02 -0.2040289E-08 -0.2680715E-05  0.3277217E-05 -0.2081724E-04  0.9734253E-08  0.4768928E-06 -0.5189042E+01  0.1639149E+02  0.5250275E-14  0.1480552E-11
  0.6400000E+01  0.2217494E+02  0.3901747E+02 -0.2040289E-08  0.2391397E-05  0.3277217E-05 -0.4566938E-06  0.9734253E-08  0.4996850E-06 -0.5189042E+01 -0.9430881E+01  0.5250275E-14  0.7858673E-12
  0.6500000E+01  0.2217494E+02  0.1620092E+03 -0.2040289E-08  0.4941356E-05  0.3277217E-05  0.1522278E-04  0.9734253E-08  0.1497052E-06 -0.5189042E+01 -0.3763745E+02  0.5250275E-14  0.1628075E-12
  0.6600000E+01  0.2217494E+02  0.3232438E+03 -0.2040289E-08  0.5083464E-05  0.3277217E-05  0.1458382E-04  0.9734253E-08 -0.2206983E-06 -0.5189042E+01 -0.7458212E+02  0.5250275E-14  0.8176571E-14
  0.6700000E+01  0.2217494E+02  0.4112949E+03 -0.2040289E-08  0.2111653E-05  0.3277217E-05  0.1762376E-04  0.9734253E-08 -0.2801641E-06 -0.5189042E+01 -0.9600961E+02  0.5250275E-14 -0.1386323E-11
  0.6800000E+01  0.2217494E+02  0.4356267E+03 -0.2040289E-08 -0.1436802E-05  0.3277217E-05  0.2322464E-04  0.9734253E-08 -0.2913287E-06 -0.5189042E+01 -0.1066539E+03  0.5250275E-14 -0.3278657E-11
  0.6900000E+01  0.2217494E+02  0.1996490E+03 -0.2040289E-08 -0.3636509E-05  0.3277217E-05  0.2641276E-04  0.9734253E-08 -0.1017838E-06 -0.5189042E+01 -0.5562260E+02  0.5250275E-14 -0.1994336E-11
  0.7000000E+01  0.2217494E+02 -0.3090602E+03 -0.2040289E-08 -0.3180383E-05  0.3277217E-05  0.2345104E-04  0.9734253E-08 -0.1200246E-06 -0.5189042E+01  0.6747031E+02  0.5250275E-14  0.9580211E-12
  0.7100000E+01  0.2217494E+02 -0.9780365E+03 -0.2040289E-08 -0.1122481E-05  0.3277217E-05  0.2916502E-04  0.9734253E-08 -0.1495894E-06 -0.5189042E+01  0.2377967E+03  0.5250275E-14  0.2424550E-11
  0.7200000E+01  0.2217494E+02 -0.1428225E+04 -0.2040289E-08 -0.8748946E-06  0.3277217E-05  0.3329792E-04  0.9734253E-08  0.4800278E-07 -0.5189042E+01  0.3477901E+03  0.5250275E-14  0.2614225E-11
  0.7300000E+01  0.2217494E+02 -0.5801232E+03 -0.2040289E-08 -0.5559345E-06  0.3277217E-05  0.1674299E-04  0.9734253E-08  0.5422718E-08 -0.5189042E+01  0.1402644E+03  0.5250275E-14  0.9648342E-12
  0.7400000E+01  0.2217494E+02  0.8458002E+03 -0.2040289E-08  0.7550182E-07  0.3277217E-05 -0.1205446E-04  0.9734253E-08 -0.1204690E-06 -0.5189042E+01 -0.2059894E+03  0.5250275E-14 -0.1409498E-11
  0.7500000E+01  0.2217494E+02  0.1145432E+04 -0.2040289E-08 -0.1210355E-06  0.3277217E-05 -0.1824132E-04  0.9734253E-08  0.1498030E-07 -0.5189042E+01 -0.2819770E+03  0.5250275E-14 -0.2623194E-11
  0.7600000E+01  0.2217494E+02  0.7763939E+03 -0.2040289E-08  0.1851407E-05  0.3277217E-05 -0.1735885E-04  0.9734253E-08  0.9641840E-07 -0.5189042E+01 -0.1852081E+03  0.5250275E-14 -0.2621464E-11
  0.7700000E+01  0.2217494E+02  0.2875799E+03 -0.2040289E-08  0.4004517E-05  0.3277217E-05 -0.2130067E-04  0.9734253E-08  0.2473910E-07 -0.5189042E+01 -0.6133302E+02  0.5250275E-14 -0.3155523E-12
  0.7800000E+01  0.2217494E+02 -0.1214360E+03 -0.2040289E-08  0.3955706E-05  0.3277217E-05 -0.2455507E-04  0.9734253E-08  0.1990619E-06 -0.5189042E+01  0.3491351E+02  0.5250275E-14  0.2617520E-11
  0.7900000E+01  0.2217494E+02 -0.2914794E+03 -0.2040289E-08  0.1396537E-05  0.3277217E-05 -0.2372653E-04  0.9734253E-08  0.3430588E-06 -0.5189042E+01  0.7074187E+02  0.5250275E-14  0.2369448E-11
  0.8000000E+01  0.2217494E+02 -0.3288634E+03 -0.2040289E-08 -0.2692776E-05  0.3277217E-05 -0.2072026E-04  0.9734253E-08  0.3958521E-06 -0.5189042E+01  0.7685510E+02  0.5250275E-14  0.1021686E-11
  0.8100000E+01  0.2217494E+02 -0.2729515E+03 -0.2040289E-08 -0.5079775E-05  0.3277217E-05 -0.2648044E-04  0.9734253E-08  0.2798770E-06 -0.5189042E+01  0.6413283E+02  0.5250275E-14  0.5765570E-12
  0.8200000E+01  0.2217494E+02 -0.1677157E+03 -0.2040289E-08 -0.5182790E-05  0.3277217E-05 -0.2249330E-04  0.9734253E-08 -0.2365709E-06 -0.5189042E+01  0.3998836E+02  0.5250275E-14  0.2644295E-12
  0.8300000E+01  0.2217494E+02 -0.6042835E+02 -0.2040289E-08 -0.1590811E-05  0.3277217E-05 -0.1349256E-05  0.9734253E-08 -0.3042805E-06 -0.5189042E+01  0.1565552E+02  0.5250275E-14 -0.5716357E-12
  0.8400001E+01  0.2217494E+02  0.3560597E+02 -0.2040289E-08  0.3968238E-05  0.3277217E-05  0.1911086E-04  0.9734253E-08 -0.6823913E-06 -0.5189042E+01 -0.9598472E+01  0.5250275E-14 -0.1773009E-11
  0.8500000E+01  0.2217494E+02  0.5629960E+02 -0.2040289E-08  0.5981307E-05  0.3277217E-05  0.2220025E-04  0.9734253E-08 -0.8357781E-06 -0.5189042E+01 -0.1748920E+02  0.5250275E-14 -0.2894560E-11
  0.8600000E+01  0.2217494E+02  0.9691483E+02 -0.2040289E-08  0.2228886E-05  0.3277217E-05  0.1699233E-04  0.9734253E-08 -0.1925873E-06 -0.5189042E+01 -0.2828802E+02  0.5250275E-14 -0.1789733E-11
  0.8700000E+01  0.2217494E+02  0.7381886E+02 -0.2040289E-08 -0.2830051E-05  0.3277217E-05  0.3953329E-05  0.9734253E-08  0.4258120E-06 -0.5189042E+01 -0.1817049E+02  0.5250275E-14  0.1193974E-11
  0.8800000E+01  0.2217494E+02  0.8847592E+02 -0.2040289E-08 -0.3914321E-05  0.3277217E-05 -0.8821858E-05  0.9734253E-08  0.7518153E-06 -0.5189042E+01 -0.1714595E+02  0.5250275E-14  0.2756570E-11
  0.8900001E+01  0.2217494E+02  0.2628660E+02 -0.2040289E-08 -0.9957701E-06  0.3277217E-05 -0.2682261E-04  0.9734253E-08  0.9045870E-06 -0.5189042E+01 -0.1384485E+01  0.5250275E-14  0.1645262E-11
  0.9000000E+01  0.2217494E+02  0.3516920E+01 -0.2040289E-08  0.3437228E-06  0.3277217E-05 -0.1536701E-04  0.9734253E-08  0.5315532E-06 -0.5189042E+01  0.7859679E+00  0.5250275E-14  0.6426944E-13
  0.9100000E+01  0.2217494E+02 -0.4030061E+02 -0.2040289E-08  0.8307013E-06  0.3277217E-05  0.1836645E-04  0.9734253E-08 -0.5785413E-06 -0.5189042E+01  0.7751796E+01  0.5250275E-14 -0.7418981E-12
  0.9200000E+01  0.2217494E+02 -0.6356140E+02 -0.2040289E-08  0.1227534E-05  0.3277217E-05  0.3746122E-04  0.9734253E-08 -0.1209352E-05 -0.5189042E+01  0.1132788E+02  0.5250275E-14 -0.1274364E-11
  0.9300000E+01  0.2217494E+02 -0.6422575E+02 -0.2040289E-08  0.1936355E-05  0.3277217E-05  0.2037376E-04  0.9734253E-08 -0.6963353E-06 -0.5189042E+01  0.1203122E+02  0.5250275E-14 -0.1742248E-11
  0.9400001E+01  0.2217494E+02 -0.6972639E+02 -0.2040289E-08  0.2295572E-05  0.3277217E-05 -0.8370645E-05  0.9734253E-08  0.1240378E-07 -0.5189042E+01  0.1761359E+02  0.5250275E-14 -0.8531351E-12
  0.9500000E+01  0.2217494E+02 -0.9490072E+01 -0.2040289E-08 -0.1248047E-05  0.3277217E-05 -0.1439421E-04  0.9734253E-08  0.4925293E-06 -0.5189042E+01  0.7280582E+01  0.5250275E-14  0.1716945E-11
  0.9600000E+01  0.2217494E+02  0.8361021E+01 -0.2040289E-08 -0.5004437E-05  0.3277217E-05 -0.1336403E-04  0.9734253E-08  0.8442455E-06 -0.5189042E+01  0.3373960E+01  0.5250275E-14  0.3317660E-11
  0.9700000E+01  0.2217494E+02  0.7525983E+02 -0.2040289E-08 -0.3876951E-05  0.3277217E-05 -0.2419261E-05  0.9734253E-08  0.8341672E-06 -0.5189042E+01 -0.1749584E+02  0.5250275E-14  0.1864171E-11
  0.9800000E+01  0.2217494E+02  0.1013697E+03 -0.2040289E-08  0.1742442E-05  0.3277217E-05  0.1190611E-04  0.9734253E-08  0.1059460E-06 -0.5189042E+01 -0.2681686E+02  0.5250275E-14 -0.5800499E-12
  0.9900001E+01  0.2217494E+02  0.1662746E+03 -0.2040289E-08  0.5961192E-05  0.3277217E-05  0.3151879E-04  0.9734253E-08 -0.3560384E-06 -0.5189042E+01 -0.4255482E+02  0.5250275E-14 -0.1587602E-11
Zone t="DoF    2",I=   100,F=POINT
  0.0000000E+00 -0.2557568E-07  0.5365896E-07  0.2217492E+02  0.1666966E+04  0.8830570E-07  0.4096699E-05  0.5189040E+01  0.4031032E+03 -0.3935322E-08  0.4394719E-06  0.7379230E-08  0.6133674E-06
  0.1000000E+00 -0.2557568E-07  0.1014719E-05  0.2217492E+02  0.8591677E+03  0.8830570E-07  0.1694424E-05  0.5189040E+01  0.2088623E+03 -0.3935322E-08  0.5058331E-06  0.7379230E-08  0.2735538E-06
  0.2000000E+00 -0.2557568E-07  0.5172358E-07  0.2217492E+02 -0.2234250E+03  0.8830570E-07 -0.3540840E-05  0.5189040E+01 -0.5934236E+02 -0.3935322E-08  0.2293424E-06  0.7379230E-08 -0.8668544E-07
  0.3000000E+00 -0.2557568E-07 -0.3346588E-05  0.2217492E+02 -0.6785641E+03  0.8830570E-07 -0.7210489E-05  0.5189040E+01 -0.1707778E+03 -0.3935322E-08  0.3007519E-07  0.7379230E-08 -0.2139772E-06
  0.4000000E+00 -0.2557568E-07 -0.1683551E-05  0.2217492E+02 -0.7155919E+03  0.8830570E-07 -0.5939232E-05  0.5189040E+01 -0.1718618E+03 -0.3935322E-08  0.4812199E-07  0.7379230E-08 -0.2447649E-06
  0.5000000E+00 -0.2557568E-07  0.1680289E-06  0.2217492E+02 -0.4692276E+03  0.8830570E-07 -0.1062986E-07  0.5189040E+01 -0.1073670E+03 -0.3935322E-08 -0.4241112E-06  0.7379230E-08 -0.1617074E-06
  0.6000000E+00 -0.2557568E-07  0.1262923E-05  0.2217492E+02 -0.1852547E+03  0.8830570E-07  0.6508246E-05  0.5189040E+01 -0.3939704E+02 -0.3935322E-08 -0.6023326E-06  0.7379230E-08 -0.6565583E-07
  0.7000000E+00 -0.2557568E-07  0.1869828E-05  0.2217492E+02  0.5256967E+01  0.8830570E-07  0.9061189E-05  0.5189040E+01  0.2738374E+01 -0.3935322E-08 -0.4705017E-06  0.7379230E-08 -0.3702251E-08
  0.8000000E+00 -0.2557568E-07  0.1517178E-05  0.2217492E+02  0.1593728E+03  0.8830570E-07  0.6162273E-05  0.5189040E+01  0.3813214E+02 -0.3935322E-08 -0.3397299E-06  0.7379230E-08  0.4677254E-07
  0.9000000E+00 -0.2557568E-07 -0.4393553E-06  0.2217492E+02  0.1908747E+03  0.8830570E-07  0.2833336E-06  0.5189040E+01  0.4542241E+02 -0.3935322E-08  0.2396331E-06  0.7379230E-08  0.6568138E-07
  0.1000000E+01 -0.2557568E-07  0.8743173E-06  0.2217492E+02  0.1907116E+03  0.8830570E-07 -0.4088543E-05  0.5189040E+01  0.4728107E+02 -0.3935322E-08  0.5830431E-06  0.7379230E-08  0.7147002E-07
  0.1100000E+01 -0.2557568E-07  0.3070281E-05  0.2217492E+02  0.1178495E+03  0.8830570E-07 -0.4063420E-05  0.5189040E+01  0.3084283E+02 -0.3935322E-08  0.1914375E-06  0.7379230E-08  0.3673309E-07
  0.1200000E+01 -0.2557568E-07  0.1893747E-05  0.2217492E+02  0.6839877E+02  0.8830570E-07 -0.4356610E-06  0.5189040E+01  0.1664251E+02 -0.3935322E-08 -0.1928723E-06  0.7379230E-08  0.1925568E-07
  0.1300000E+01 -0.2557568E-07 -0.1780795E-05  0.2217492E+02  0.1089081E+02  0.8830570E-07  0.3341420E-05  0.5189040E+01 -0.1649214E+01 -0.3935322E-08 -0.7974958E-06  0.7379230E-08  0.8560308E-08
  0.1400000E+01 -0.2557568E-07 -0.4084117E-05  0.2217492E+02 -0.1414742E+02  0.8830570E-07  0.3503318E-05  0.5189040E+01 -0.9136797E+01 -0.3935322E-08 -0.7374375E-06  0.7379230E-08  0.7161397E-08
  0.1500000E+01 -0.2557568E-07 -0.3108880E-05  0.2217492E+02 -0.7201317E+02  0.8830570E-07 -0.6353455E-06  0.5189040E+01 -0.1925413E+02 -0.3935322E-08  0.1973661E-06  0.7379230E-08 -0.2707522E-07
  0.1600000E+01 -0.2557568E-07  0.1756364E-06  0.2217492E+02 -0.6274434E+02  0.8830570E-07 -0.5850656E-05  0.5189040E+01 -0.1238890E+02 -0.3935322E-08  0.1120970E-05  0.7379230E-08 -0.2636183E-07
  0.1700000E+01 -0.2557568E-07  0.7484124E-06  0.2217492E+02 -0.7502507E+02  0.8830570E-07 -0.8049978E-05  0.5189040E+01 -0.1362461E+02 -0.3935322E-08  0.1356006E-05  0.7379230E-08 -0.2875457E-07
  0.1800000E+01 -0.2557568E-07  0.5131411E-06  0.2217492E+02 -0.2790393E+02  0.8830570E-07 -0.5202326E-05  0.5189040E+01 -0.4295261E+01 -0.3935322E-08  0.9452522E-06  0.7379230E-08 -0.4867887E-08
  0.1900000E+01 -0.2557568E-07 -0.6387164E-06  0.2217492E+02 -0.1309068E+02  0.8830570E-07  0.6975053E-06  0.5189040E+01 -0.3784858E+01 -0.3935322E-08 -0.1666642E-06  0.7379230E-08 -0.9882078E-08
  0.2000000E+01 -0.2557568E-07 -0.1578929E-05  0.2217492E+02  0.4142509E+02  0.8830570E-07  0.5909998E-05  0.5189040E+01  0.5677547E+01 -0.3935322E-08 -0.9758801E-06  0.7379230E-08  0.1618779E-07
  0.2100000E+01 -0.2557568E-07 -0.1600283E-05  0.2217492E+02  0.6504677E+02  0.8830570E-07  0.6759311E-05  0.5189040E+01  0.1108071E+02 -0.3935322E-08 -0.1314792E-05  0.7379230E-08  0.2908395E-07
  0.2200000E+01 -0.2557568E-07  0.1840076E-05  0.2217492E+02  0.8855415E+02  0.8830570E-07  0.3210822E-05  0.5189040E+01  0.2044826E+02 -0.3935322E-08 -0.7428942E-06  0.7379230E-08  0.3550700E-07
  0.2300000E+01 -0.2557568E-07  0.4312086E-05  0.2217492E+02  0.7624176E+02  0.8830570E-07 -0.1530681E-05  0.5189040E+01  0.2274609E+02 -0.3935322E-08  0.2786863E-06  0.7379230E-08  0.1624317E-07
  0.2400000E+01 -0.2557568E-07  0.3442588E-05  0.2217492E+02  0.5372483E+02  0.8830570E-07 -0.3260923E-05  0.5189040E+01  0.1782698E+02 -0.3935322E-08  0.6279124E-06  0.7379230E-08  0.1217658E-07
  0.2500000E+01 -0.2557568E-07  0.7308494E-07  0.2217492E+02  0.1929760E+02  0.8830570E-07 -0.6575524E-06  0.5189040E+01  0.6510576E+01 -0.3935322E-08  0.3647675E-06  0.7379230E-08  0.8449778E-08
  0.2600000E+01 -0.2557568E-07 -0.2017117E-05  0.2217492E+02 -0.4829346E+02  0.8830570E-07  0.3790821E-05  0.5189040E+01 -0.1271174E+02 -0.3935322E-08 -0.8069016E-08  0.7379230E-08 -0.1292766E-07
  0.2700000E+01 -0.2557568E-07 -0.5165630E-06  0.2217492E+02 -0.1598807E+03  0.8830570E-07  0.6202036E-05  0.5189040E+01 -0.3907172E+02 -0.3935322E-08 -0.5990784E-06  0.7379230E-08 -0.6311947E-07
  0.2800000E+01 -0.2557568E-07  0.8342196E-06  0.2217492E+02 -0.2345486E+03  0.8830570E-07  0.3813931E-05  0.5189040E+01 -0.5541773E+02 -0.3935322E-08 -0.4714527E-06  0.7379230E-08 -0.8256549E-07
  0.2900000E+01 -0.2557568E-07 -0.1126598E-05  0.2217492E+02 -0.3046257E+03  0.8830570E-07 -0.2276541E-05  0.5189040E+01 -0.7163100E+02 -0.3935322E-08  0.1860405E-09  0.7379230E-08 -0.1000100E-06
  0.3000000E+01 -0.2557568E-07 -0.1828290E-05  0.2217492E+02 -0.2461280E+03  0.8830570E-07 -0.7967812E-05  0.5189040E+01 -0.5889279E+02 -0.3935322E-08  0.2104914E-06  0.7379230E-08 -0.7848117E-07
  0.3100000E+01 -0.2557568E-07 -0.2124289E-05  0.2217492E+02 -0.1137366E+03  0.8830570E-07 -0.9073201E-05  0.5189040E+01 -0.3177762E+02 -0.3935322E-08  0.5985930E-06  0.7379230E-08 -0.3550547E-07
  0.3200000E+01 -0.2557568E-07 -0.1677840E-05  0.2217492E+02  0.2198974E+03  0.8830570E-07 -0.4761596E-05  0.5189040E+01  0.4540671E+02 -0.3935322E-08  0.5630610E-06  0.7379230E-08  0.8081255E-07
  0.3300000E+01 -0.2557568E-07  0.5341544E-06  0.2217492E+02  0.6693834E+03  0.8830570E-07  0.1790335E-05  0.5189040E+01  0.1569610E+03 -0.3935322E-08  0.2466010E-06  0.7379230E-08  0.2319402E-06
  0.3400000E+01 -0.2557568E-07  0.3108725E-05  0.2217492E+02  0.1000047E+04  0.8830570E-07  0.5778982E-05  0.5189040E+01  0.2457475E+03 -0.3935322E-08  0.3069743E-06  0.7379230E-08  0.3205670E-06
  0.3500000E+01 -0.2557568E-07  0.3365463E-06  0.2217492E+02  0.9164718E+03  0.8830570E-07  0.4695290E-05  0.5189040E+01  0.2258538E+03 -0.3935322E-08  0.7826488E-07  0.7379230E-08  0.3280526E-06
  0.3600000E+01 -0.2557568E-07 -0.4384675E-06  0.2217492E+02 -0.1913764E+03  0.8830570E-07  0.4719058E-07  0.5189040E+01 -0.4664108E+02 -0.3935322E-08 -0.2282465E-06  0.7379230E-08 -0.4624854E-07
  0.3700000E+01 -0.2557568E-07  0.3242693E-07  0.2217492E+02 -0.1441278E+04  0.8830570E-07 -0.3972776E-05  0.5189040E+01 -0.3489819E+03 -0.3935322E-08 -0.3188947E-06  0.7379230E-08 -0.5342190E-06
  0.3800000E+01 -0.2557568E-07 -0.1694410E-05  0.2217492E+02 -0.1207779E+04  0.8830570E-07 -0.3743049E-05  0.5189040E+01 -0.2947515E+03 -0.3935322E-08 -0.5593398E-06  0.7379230E-08 -0.3933411E-06
  0.3900000E+01 -0.2557568E-07 -0.7931636E-06  0.2217492E+02 -0.4073631E+03  0.8830570E-07  0.9348382E-06  0.5189040E+01 -0.9368311E+02 -0.3935322E-08 -0.3926408E-06  0.7379230E-08 -0.1312914E-06
  0.4000000E+01 -0.2557568E-07  0.2863548E-05  0.2217492E+02  0.1795601E+03  0.8830570E-07  0.6534586E-05  0.5189040E+01  0.5183655E+02 -0.3935322E-08 -0.3185756E-06  0.7379230E-08  0.4701406E-07
  0.4100000E+01 -0.2557568E-07  0.2349902E-05  0.2217492E+02  0.4868696E+03  0.8830570E-07  0.8594859E-05  0.5189040E+01  0.1204683E+03 -0.3935322E-08 -0.4090373E-06  0.7379230E-08  0.1643185E-06
  0.4200000E+01 -0.2557568E-07  0.1192945E-05  0.2217492E+02  0.4805020E+03  0.8830570E-07  0.5077410E-05  0.5189040E+01  0.1131670E+03 -0.3935322E-08  0.1088119E-06  0.7379230E-08  0.1615739E-06
  0.4300000E+01 -0.2557568E-07  0.9856360E-07  0.2217492E+02  0.3457610E+03  0.8830570E-07 -0.1764971E-05  0.5189040E+01  0.7897504E+02 -0.3935322E-08  0.3750290E-06  0.7379230E-08  0.1177236E-06
  0.4400000E+01 -0.2557568E-07 -0.1292060E-05  0.2217492E+02  0.1939721E+03  0.8830570E-07 -0.7132529E-05  0.5189040E+01  0.4464917E+02 -0.3935322E-08  0.5159510E-06  0.7379230E-08  0.6934019E-07
  0.4500000E+01 -0.2557568E-07 -0.1202850E-05  0.2217492E+02  0.2756012E+02  0.8830570E-07 -0.7657713E-05  0.5189040E+01  0.6130432E+01 -0.3935322E-08  0.5785747E-06  0.7379230E-08  0.1912857E-07
  0.4600000E+01 -0.2557568E-07  0.6847262E-06  0.2217492E+02 -0.7044357E+02  0.8830570E-07 -0.3527303E-05  0.5189040E+01 -0.1650080E+02 -0.3935322E-08  0.1171315E-07  0.7379230E-08 -0.2356447E-07
  0.4700000E+01 -0.2557568E-07 -0.5118378E-06  0.2217492E+02 -0.1357677E+03  0.8830570E-07  0.1511417E-05  0.5189040E+01 -0.3437650E+02 -0.3935322E-08 -0.4814228E-06  0.7379230E-08 -0.5067433E-07
  0.4800000E+01 -0.2557568E-07 -0.3416390E-05  0.2217492E+02 -0.1159107E+03  0.8830570E-07  0.3556719E-05  0.5189040E+01 -0.3155992E+02 -0.3935322E-08 -0.3570586E-06  0.7379230E-08 -0.3599094E-07
  0.4900000E+01 -0.2557568E-07 -0.3665161E-05  0.2217492E+02 -0.1115770E+03  0.8830570E-07  0.1311046E-05  0.5189040E+01 -0.2960914E+02 -0.3935322E-08 -0.8043000E-07  0.7379230E-08 -0.3109676E-07
  0.5000000E+01 -0.2557568E-07 -0.4721982E-06  0.2217492E+02 -0.5975477E+02  0.8830570E-07 -0.3037760E-05  0.5189040E+01 -0.1206976E+02 -0.3935322E-08  0.7752704E-06  0.7379230E-08 -0.2260414E-07