VARIABLES="w (rad/s)"
"A   1   1" "B   1   1"
"A   1   2" "B   1   2"
"A   1   3" "B   1   3"
"A   1   4" "B   1   4"
"A   1   5" "B   1   5"
"A   1   6" "B   1   6"
Zone t="Motion of body    1 in DoF   1",I=    25,F=POINT
  0.6000000E+00  0.5446680E+02  0.2210007E-03  0.3064633E-06  0.1535660E-11 -0.9896854E-05 -0.2766615E-06  0.1358179E-07 -0.7371881E-13 -0.1287562E+02 -0.4594918E-04  0.2590520E-13 -0.5421011E-19
  0.2320833E+01  0.6160802E+02  0.2633537E+01 -0.1240983E-06 -0.2291927E-07 -0.1145437E-04 -0.1273211E-04  0.1815829E-07 -0.3747118E-08 -0.1451991E+02 -0.5641947E+00  0.1530793E-13 -0.6494805E-14
  0.4041667E+01  0.7709271E+02  0.9484247E+02 -0.6767738E-06  0.4174653E-06 -0.1813947E-05 -0.1485646E-04 -0.3479498E-07  0.1240987E-06 -0.1827469E+02 -0.2137373E+02 -0.1758044E-14  0.3872458E-12
  0.5762500E+01  0.4524121E+02  0.3265675E+03  0.3794786E-06  0.1506414E-05 -0.2896191E-06 -0.4887581E-05  0.9737473E-07  0.2253801E-06 -0.1114769E+02 -0.7737799E+02 -0.5548707E-13 -0.1385558E-12
  0.7483334E+01  0.1509181E+02  0.3155547E+03 -0.1727095E-06  0.2149493E-05 -0.7765860E-07  0.8404255E-05 -0.6866689E-07 -0.4763715E-06 -0.3714244E+01 -0.7730679E+02 -0.5257857E-13 -0.2000178E-11
  0.9204167E+01  0.8240934E+01  0.2382536E+03 -0.4823989E-07 -0.2623303E-05 -0.1253074E-05 -0.1338124E-04  0.7740644E-08  0.2603047E-06 -0.1746844E+01 -0.5691415E+02 -0.4168689E-13 -0.7105427E-13
  0.1092500E+02  0.8902889E+01  0.1602923E+03  0.3371516E-07 -0.1029723E-05  0.4637432E-07  0.2559274E-05 -0.2301667E-08 -0.8044299E-07 -0.1879143E+01 -0.4226181E+02  0.6829015E-14 -0.8131273E-12
  0.1264583E+02  0.1087106E+02  0.1128294E+03  0.4532949E-07  0.1047025E-05 -0.2055035E-05 -0.2549030E-05  0.5950647E-07  0.4675530E-07 -0.2329571E+01 -0.2858655E+02 -0.4495033E-14 -0.3966827E-12
  0.1436667E+02  0.1356585E+02  0.7825899E+02  0.7124292E-07 -0.6555056E-06  0.4746244E-05  0.1071952E-05  0.2696729E-07 -0.2427623E-07 -0.3008568E+01 -0.1921200E+02  0.1706291E-13  0.5659362E-12
  0.1608750E+02  0.1722047E+02  0.4974722E+02  0.8683661E-07  0.2254601E-06  0.6706101E-05 -0.5290844E-05 -0.9146789E-08  0.6213668E-08 -0.3941189E+01 -0.1242156E+02  0.1722528E-13  0.3164136E-14
  0.1780833E+02  0.1671916E+02  0.3843972E+02 -0.3969344E-07  0.2554161E-06  0.6787734E-05 -0.2509914E-06  0.1929760E-07 -0.9375890E-07 -0.3833089E+01 -0.8838675E+01  0.5585924E-13  0.1708633E-12
  0.1952917E+02  0.1809027E+02  0.3007775E+02 -0.1098750E-06 -0.1752960E-07  0.6232353E-05 -0.5709589E-06  0.5999251E-07  0.5382572E-07 -0.4183048E+01 -0.6836647E+01 -0.3638366E-13 -0.3042705E-13
  0.2125000E+02  0.1911234E+02  0.2322664E+02  0.1634307E-06  0.9819121E-07  0.4426171E-05 -0.2479828E-07 -0.5960465E-08 -0.3086319E-07 -0.4453458E+01 -0.5220987E+01  0.3243419E-13 -0.1676664E-12
  0.2297083E+02  0.1982082E+02  0.1894993E+02 -0.3555683E-07  0.1310582E-07  0.6891781E-05 -0.2614106E-06 -0.3502976E-07 -0.4480171E-07 -0.4637185E+01 -0.4260709E+01 -0.3278833E-13 -0.6498621E-13
  0.2469167E+02  0.2040000E+02  0.1388152E+02  0.7513443E-07  0.1414687E-06  0.6049378E-05 -0.5018810E-06  0.1621878E-07  0.4265530E-09 -0.4788514E+01 -0.3072988E+01 -0.6618622E-13 -0.1541215E-13
  0.2641250E+02  0.2078794E+02  0.8302457E+01 -0.1026791E-06  0.1610420E-07  0.6372873E-05 -0.1703593E-06 -0.2940740E-07  0.2525985E-07 -0.4889052E+01 -0.1740148E+01 -0.1614106E-13 -0.5002075E-14
  0.2813334E+02  0.2125792E+02 -0.5045302E+00 -0.4163805E-06  0.5231868E-09  0.5809333E-05 -0.1040717E-06  0.7560925E-07  0.4209255E-08 -0.5004818E+01  0.3596497E+00  0.2015449E-12 -0.3339343E-14
  0.2985417E+02  0.2200726E+02  0.2092805E+01 -0.3830835E-07  0.5873744E-08  0.6448781E-05  0.1404260E-07  0.9670676E-07 -0.1908347E-08 -0.5181856E+01 -0.5275533E+00 -0.1190023E-13 -0.3086940E-14
  0.3157500E+02  0.2194452E+02  0.6437600E+01  0.6099683E-07 -0.1094986E-07  0.5848145E-05 -0.3133027E-06  0.1811028E-07 -0.9592895E-08 -0.5158576E+01 -0.1498554E+01 -0.1485220E-12  0.3694267E-13
  0.3329583E+02  0.2221251E+02 -0.2471579E+01 -0.5543881E-07  0.4836875E-07  0.6487516E-05 -0.7277122E-06 -0.6802583E-07  0.6511982E-08 -0.5222915E+01  0.6628659E+00  0.1024334E-13 -0.1224021E-13
  0.3501667E+02  0.2244323E+02  0.3793827E+01  0.1460682E-06 -0.3072910E-07  0.6624881E-05  0.2979650E-06 -0.2649016E-07  0.7958079E-08 -0.5273736E+01 -0.9008365E+00  0.4058311E-13 -0.9714451E-14
  0.3673750E+02  0.2261231E+02 -0.2358181E+01  0.2374857E-06  0.3758032E-08  0.6100401E-05 -0.4882459E-06  0.1255875E-06 -0.4130925E-08 -0.5313414E+01  0.5875400E+00  0.9941313E-13 -0.2452899E-14
  0.3845834E+02  0.2269101E+02  0.1183230E+01 -0.1039852E-06 -0.2223169E-07  0.6763544E-05 -0.6659684E-07 -0.1617656E-07  0.1199851E-08 -0.5329050E+01 -0.2664089E+00 -0.6688184E-13  0.1305770E-13
  0.4017917E+02  0.2288439E+02  0.1503153E+01  0.7403449E-07 -0.1379067E-07  0.6794299E-05  0.2119923E-06 -0.3245094E-08  0.2147317E-08 -0.5373857E+01 -0.3643663E+00  0.1043377E-12  0.1516842E-13
  0.4190000E+02  0.2297598E+02  0.1850177E+00  0.1140703E-06  0.2493280E-08  0.7152557E-05  0.1373528E-06 -0.1467000E-07 -0.3601599E-09 -0.5394645E+01 -0.4119372E-01  0.1427869E-12 -0.8011170E-15
Zone t="Motion of body    1 in DoF   2",I=    25,F=POINT
  0.6000000E+00 -0.2492258E-06 -0.5044853E-12  0.5446677E+02  0.2209995E-03  0.6759849E-06 -0.3634426E-11  0.1287563E+02  0.4596511E-04 -0.2716357E-08 -0.6137313E-12  0.1864991E-07  0.8428418E-13
  0.2320833E+01 -0.1681397E-06  0.1582521E-07  0.6160786E+02  0.2633533E+01 -0.4610800E-06 -0.4420872E-07  0.1451987E+02  0.5641924E+00  0.1013252E-07  0.1600711E-08  0.2117403E-07  0.9888556E-09
  0.4041667E+01  0.4928904E-06 -0.1120614E-05  0.7709254E+02  0.9484229E+02 -0.6456658E-06 -0.2523884E-05  0.1827468E+02  0.2137371E+02  0.1566926E-07  0.2938323E-06  0.2641647E-07  0.3421371E-07
  0.5762500E+01 -0.2763664E-06  0.6239861E-06  0.4524112E+02  0.3265674E+03  0.1222477E-05  0.8568168E-07  0.1114768E+02  0.7737809E+02 -0.4153578E-07  0.2793968E-08  0.1488259E-07  0.1127405E-06
  0.7483334E+01 -0.9047725E-07  0.7813796E-06  0.1509182E+02  0.3155544E+03  0.1536993E-06  0.4786998E-06  0.3714247E+01  0.7730676E+02 -0.1026736E-07  0.4530884E-06  0.4907119E-08  0.1056961E-06
  0.9204167E+01  0.4201702E-07 -0.1818407E-06  0.8240927E+01  0.2382536E+03  0.5028888E-06  0.5735084E-05  0.1746848E+01  0.5691411E+02  0.1482359E-07 -0.4887115E-06  0.2986293E-08  0.8137688E-07
  0.1092500E+02 -0.1014012E-06  0.1683016E-05  0.8902894E+01  0.1602923E+03  0.2209600E-06  0.4644971E-07  0.1879144E+01  0.4226183E+02 -0.4820713E-07  0.1651351E-06  0.3271593E-08  0.5322167E-07
  0.1264583E+02  0.1050569E-06 -0.4512258E-06  0.1087109E+02  0.1128294E+03  0.9086519E-06 -0.9487849E-08  0.2329571E+01  0.2858652E+02 -0.5192086E-08  0.3317837E-07  0.3891268E-08  0.4111499E-07
  0.1436667E+02  0.9671923E-07 -0.4666526E-06  0.1356582E+02  0.7825903E+02  0.6023560E-06 -0.8600182E-08  0.3008570E+01  0.1921202E+02 -0.1549323E-07 -0.3961759E-08  0.4707057E-08  0.3076286E-07
  0.1608750E+02  0.4565290E-06  0.2860397E-06  0.1722047E+02  0.4974718E+02  0.6196660E-06 -0.3669993E-07  0.3941195E+01  0.1242154E+02  0.4266572E-07  0.3480818E-07  0.5809158E-08  0.1679022E-07
  0.1780833E+02 -0.1323115E-06 -0.3311297E-06  0.1671919E+02  0.3843972E+02 -0.7244183E-06  0.1842636E-07  0.3833093E+01  0.8838666E+01  0.5020514E-08 -0.4903995E-08  0.5516944E-08  0.1949098E-07
  0.1952917E+02 -0.3176074E-07 -0.3929608E-06  0.1809027E+02  0.3007775E+02 -0.1941888E-06 -0.7861672E-08  0.4183050E+01  0.6836638E+01 -0.2613346E-07  0.3006289E-07  0.5945819E-08  0.1602305E-07
  0.2125000E+02  0.4387077E-07 -0.3946707E-06  0.1911234E+02  0.2322665E+02 -0.1379848E-05 -0.2013394E-09  0.4453458E+01  0.5220994E+01  0.4207387E-08 -0.1422086E-07  0.6242293E-08  0.1316113E-07
  0.2297083E+02  0.3288094E-07 -0.6925802E-07  0.1982081E+02  0.1894993E+02  0.4946332E-06  0.5560651E-08  0.4637186E+01  0.4260716E+01  0.5335551E-07 -0.8788402E-07  0.6457218E-08  0.1102633E-07
  0.2469167E+02 -0.2905047E-06 -0.4255469E-07  0.2040000E+02  0.1388154E+02  0.2803208E-06  0.1116405E-08  0.4788507E+01  0.3072996E+01  0.4631781E-07 -0.1113324E-07  0.6624782E-08  0.8766281E-08
  0.2641250E+02 -0.9858884E-07 -0.5594268E-07  0.2078792E+02  0.8302469E+01 -0.3808153E-06 -0.1108447E-07  0.4889058E+01  0.1740153E+01  0.3829309E-07  0.1250214E-08  0.6725772E-08  0.6191531E-08
  0.2813334E+02 -0.1451936E-06 -0.4095568E-08  0.2125793E+02 -0.5045050E+00 -0.9322051E-07  0.6894652E-08  0.5004811E+01 -0.3596440E+00 -0.2595344E-07 -0.1325418E-08  0.6865895E-08  0.1763919E-08
  0.2985417E+02 -0.2576143E-06  0.6773575E-08  0.2200725E+02  0.2092744E+01 -0.6713321E-06 -0.3410605E-09  0.5181862E+01  0.5275377E+00 -0.3057181E-08  0.1227818E-09  0.7200664E-08  0.8422257E-09
  0.3157500E+02 -0.1309603E-07  0.1146536E-06  0.2194452E+02  0.6437624E+01  0.1311963E-06  0.2479283E-08  0.5158579E+01  0.1498560E+01 -0.7232313E-07  0.9986707E-08  0.7184986E-08  0.3615061E-08
  0.3329583E+02  0.9678017E-08  0.1927583E-07  0.2221254E+02 -0.2471558E+01  0.9109643E-06 -0.9051291E-08  0.5222917E+01 -0.6628610E+00  0.1370586E-07 -0.1280932E-07  0.7264524E-08 -0.4855388E-09
  0.3501667E+02 -0.1364935E-06  0.4855838E-07  0.2244321E+02  0.3793826E+01  0.3746922E-06  0.2943125E-08  0.5273737E+01  0.9008361E+00 -0.1856439E-07 -0.5911716E-10  0.7381167E-08  0.1976676E-08
  0.3673750E+02  0.1937303E-06 -0.3325204E-07  0.2261231E+02 -0.2358179E+01 -0.6074036E-06  0.1396984E-08  0.5313414E+01 -0.5875400E+00 -0.4193011E-07 -0.2630259E-08  0.7436942E-08 -0.8758023E-09
  0.3845834E+02 -0.3063859E-06 -0.1459512E-08  0.2269102E+02  0.1183241E+01  0.6761219E-07  0.2892648E-08  0.5329052E+01  0.2664112E+00  0.1409395E-07  0.3840341E-09  0.7479029E-08  0.7577997E-09
  0.4017917E+02  0.4167627E-07  0.1374428E-07  0.2288438E+02  0.1503141E+01 -0.1924804E-06  0.3186869E-08  0.5373861E+01  0.3643635E+00  0.1094060E-07  0.2631623E-08  0.7560808E-08  0.6618253E-09
  0.4190000E+02  0.7254980E-07  0.2776815E-08  0.2297599E+02  0.1850034E+00  0.1273178E-06  0.2488036E-09  0.5394650E+01  0.4119028E-01 -0.1920436E-07 -0.1608669E-09  0.7594514E-08  0.1347340E-09
Zone t="Motion of body    1 in DoF   3",I=    25,F=POINT
  0.6000000E+00  0.1636023E-05 -0.4417961E-07 -0.8756761E-05  0.4526446E-06  0.4518282E+02  0.8226256E+00  0.7116856E-06 -0.8237475E-07  0.1490116E-05  0.9895302E-09  0.4440892E-13 -0.2414735E-14
  0.2320833E+01  0.1004825E-05 -0.2130866E-05 -0.1838802E-05  0.1001498E-04  0.4205767E+02  0.2961304E+02 -0.2017877E-05  0.2286164E-05  0.1569839E-05  0.3091991E-06  0.3750442E-13 -0.2104983E-12
  0.4041667E+01  0.2455465E-05  0.1144409E-04 -0.8126125E-06 -0.2023159E-04  0.2983533E+02  0.5620595E+02 -0.7785088E-06 -0.6451737E-05 -0.9585901E-07 -0.3971159E-05 -0.1670142E-13 -0.7105427E-14
  0.5762500E+01 -0.1625229E-05 -0.1148880E-04 -0.1069829E-05  0.1532701E-04  0.2532492E+02  0.4261885E+02 -0.1980626E-06 -0.1248438E-05 -0.1034354E-07 -0.1177192E-05  0.4315661E-14  0.1598721E-12
  0.7483334E+01 -0.5615315E-06 -0.1140311E-04  0.1983344E-05  0.1595344E-04  0.3004981E+02  0.4759201E+02  0.1287092E-05 -0.2371613E-05  0.4978116E-07  0.5897135E-05  0.7121252E-14 -0.4618528E-13
  0.9204167E+01 -0.1389066E-05 -0.2147863E-05 -0.1507655E-06 -0.1053137E-05  0.2560095E+02  0.3846696E+00 -0.6177337E-06 -0.6493792E-06 -0.1006992E-05  0.1281733E-05 -0.1466761E-13  0.8937295E-14
  0.1092500E+02  0.6315092E-06 -0.1342501E-05  0.9112895E-06  0.2170294E-05  0.2730175E+02  0.4398896E+00  0.9430014E-06  0.1480330E-06 -0.7065265E-06 -0.2217712E-07 -0.1300765E-14 -0.6855627E-14
  0.1264583E+02 -0.3582171E-06 -0.9480282E-06 -0.1093873E-05  0.4028116E-06  0.2801006E+02  0.3080525E+00 -0.3657291E-06  0.3382593E-07 -0.4218478E-06  0.2112938E-06  0.8990066E-14 -0.8382184E-14
  0.1436667E+02  0.2522479E-05 -0.6062328E-07  0.6645882E-06  0.9397445E-07  0.2842412E+02  0.2688216E+00 -0.1095676E-05  0.3221066E-07 -0.6223221E-08  0.1685112E-07 -0.1483732E-14  0.6175616E-15
  0.1608750E+02  0.4396016E-05  0.3779070E-06 -0.4417089E-06  0.3430259E-07  0.2863022E+02 -0.4819867E-02  0.7722669E-07  0.6319482E-08 -0.1356040E-05 -0.9336736E-07 -0.2208369E-13  0.3851899E-15
  0.1780833E+02  0.4627240E-05 -0.1194130E-06  0.2833871E-05  0.1276067E-07  0.2885545E+02  0.9039793E-01  0.1151162E-05 -0.1639819E-08 -0.8133232E-06  0.2632441E-07 -0.1037386E-13 -0.2428613E-16
  0.1952917E+02  0.7181551E-05  0.1269846E-06 -0.5917226E-06 -0.5267856E-07  0.2866739E+02  0.9864096E-02  0.1032939E-06  0.8617747E-08  0.1983854E-06 -0.2940669E-07  0.1891951E-13 -0.3783866E-15
  0.2125000E+02  0.4033481E-05 -0.2304841E-07  0.2061707E-05  0.5970691E-08  0.2881133E+02  0.1015015E-01 -0.3418502E-07  0.4057028E-08 -0.6142785E-06  0.8649295E-08 -0.6687461E-15  0.1142749E-15
  0.2297083E+02  0.5303765E-05 -0.2731667E-07 -0.1617775E-05  0.2058840E-08  0.2891774E+02  0.7306890E-02  0.6871347E-06  0.1565809E-08 -0.2672641E-06  0.6790287E-08 -0.9898365E-14  0.2797242E-16
  0.2469167E+02  0.4299259E-05 -0.9343103E-07  0.5072630E-05 -0.3489149E-08  0.2900648E+02  0.3722640E-02 -0.4163323E-06  0.4945377E-10 -0.5841778E-06  0.2367233E-07 -0.3107875E-13  0.1084202E-18
  0.2641250E+02  0.6016317E-05  0.3780585E-07  0.2944619E-05 -0.2153231E-07  0.2908008E+02  0.5830087E-02  0.3592357E-06  0.1080161E-07 -0.1281796E-05 -0.9587581E-08 -0.1614106E-13 -0.3801348E-15
  0.2813334E+02  0.3319921E-05  0.4745903E-07  0.1362224E-05  0.1591600E-07  0.2913714E+02  0.3820936E-02  0.7876073E-06  0.1971110E-07 -0.6673741E-06 -0.1814988E-07  0.3535875E-14 -0.1472075E-15
  0.2985417E+02  0.4450258E-05 -0.2912151E-07 -0.2368380E-06 -0.3562687E-07  0.2918437E+02  0.2096926E-03  0.2870007E-08  0.4695179E-08 -0.4931421E-06  0.9349890E-08  0.1094821E-13 -0.2453956E-15
  0.3157500E+02  0.6340839E-05 -0.1248673E-06 -0.4496304E-06  0.2923727E-08  0.2922327E+02  0.3207774E-02 -0.1292496E-05  0.6315418E-08 -0.1042019E-05  0.3466448E-07  0.2610386E-13  0.1485357E-16
  0.3329583E+02  0.4525508E-05  0.7448648E-07  0.1743274E-05  0.3089613E-07  0.2925683E+02 -0.2299516E-02 -0.6860763E-06 -0.6553336E-08 -0.5191445E-06 -0.1870012E-07  0.3670530E-13 -0.7112366E-16
  0.3501667E+02  0.6109121E-05 -0.7678022E-07 -0.2849022E-05  0.1544248E-07  0.2928516E+02  0.2456449E-02  0.9235386E-06  0.9431318E-09 -0.8749201E-06  0.1683702E-07 -0.6493298E-14 -0.2992398E-16
  0.3673750E+02  0.4198893E-05  0.7452445E-07 -0.1195034E-05 -0.1700195E-07  0.2930973E+02 -0.3116003E-02  0.2652701E-06  0.4601901E-09 -0.2109181E-06 -0.1759281E-07  0.7736430E-15  0.6602791E-16
  0.3845834E+02  0.5779390E-05 -0.2679195E-07  0.5968859E-06 -0.5223022E-09  0.2933094E+02  0.6079061E-03  0.1796470E-05  0.2397655E-09 -0.6354384E-06  0.6978098E-08 -0.1551954E-13 -0.1626303E-18
  0.4017917E+02  0.5729166E-05 -0.1837338E-07 -0.5171381E-05  0.2911946E-09  0.2934965E+02  0.1822740E-02 -0.1515459E-05 -0.6153371E-09 -0.7832729E-06  0.3426067E-08  0.2122123E-14  0.2374403E-16
  0.4190000E+02  0.4995979E-05  0.6512039E-08 -0.1455353E-05  0.3108205E-08  0.2936601E+02 -0.8450433E-03  0.1269799E-05 -0.4210392E-09 -0.1408320E-05 -0.2767138E-08 -0.1627974E-13  0.1084202E-18
Zone t="Motion of body    1 in DoF   4",I=    25,F=POINT
  0.6000000E+00 -0.8238809E-07 -0.2473577E-12  0.1302622E+02  0.4612519E-04  0.7227451E-08 -0.4528378E-11  0.3932626E+01  0.9596110E-05  0.1250858E-07 -0.1548761E-12  0.3356364E-08  0.1755991E-13
  0.2320833E+01 -0.8859688E-07  0.4030881E-08  0.1469026E+02  0.5669069E+00 -0.8131099E-07 -0.5435140E-07  0.4315646E+01  0.1214455E+00  0.1193832E-07 -0.8913048E-10  0.3936362E-08  0.2128714E-09
  0.4041667E+01  0.9116399E-07  0.6461050E-07  0.1849076E+02  0.2153293E+02 -0.6106403E-08 -0.9723008E-06  0.5237395E+01  0.4853211E+01  0.2091155E-07  0.1204899E-07  0.5223954E-08  0.7766531E-08
  0.5762500E+01 -0.1483336E-06  0.4349276E-06  0.1134477E+02  0.7828998E+02 -0.1830675E-06 -0.2550427E-05  0.3641117E+01  0.1854442E+02  0.1672618E-07 -0.1175795E-07  0.2632916E-08  0.2703043E-07
  0.7483334E+01  0.1387650E-07  0.4391186E-06  0.3828137E+01  0.7885368E+02 -0.6583558E-07 -0.5164184E-06  0.1795220E+01  0.1929357E+02 -0.9022835E-09 -0.2589077E-06  0.1362397E-09  0.2640524E-07
  0.9204167E+01  0.1359672E-07  0.1000590E-06  0.1838311E+01  0.6071762E+02  0.4887230E-07 -0.7883646E-06  0.1245984E+01  0.1450760E+02  0.4869523E-08  0.1564622E-06 -0.4460317E-09  0.2076129E-07
  0.1092500E+02  0.1618626E-07 -0.3573878E-06  0.1914592E+01  0.4089748E+02 -0.2739836E-06 -0.5209586E-08  0.1237721E+01  0.1078590E+02 -0.5434491E-09 -0.5826587E-07 -0.3847531E-09  0.1359810E-07
  0.1264583E+02 -0.1845768E-07 -0.2074012E-07  0.2356658E+01  0.2833202E+02 -0.3405051E-06 -0.4045432E-08  0.1342509E+01  0.7178829E+01 -0.5477467E-08  0.2556044E-07 -0.2546378E-09  0.1032962E-07
  0.1436667E+02 -0.1572012E-07 -0.2593697E-07  0.3059746E+01  0.1906534E+02 -0.2991684E-07 -0.1375156E-08  0.1521866E+01  0.4673157E+01  0.1936654E-08  0.1864737E-07 -0.4283040E-10  0.7560811E-08
  0.1608750E+02 -0.3907647E-09 -0.1025910E-08  0.3966422E+01  0.1187999E+02 -0.7873186E-07 -0.1057924E-07  0.1752873E+01  0.2967127E+01  0.7489657E-08  0.1347507E-07  0.2313092E-09  0.4005666E-08
  0.1780833E+02 -0.1950679E-07 -0.6529353E-07  0.3880638E+01  0.9033221E+01  0.1286768E-06 -0.1387889E-08  0.1737253E+01  0.2077786E+01 -0.1838240E-07  0.8169309E-08  0.1717668E-09  0.4570316E-08
  0.1952917E+02 -0.4091699E-07  0.4487379E-07  0.4237467E+01  0.6922892E+01 -0.1387982E-06 -0.8863026E-09  0.1823823E+01  0.1573010E+01  0.3523606E-07 -0.1689773E-07  0.2906690E-09  0.3694400E-08
  0.2125000E+02 -0.3021320E-07 -0.2881385E-07  0.4487164E+01  0.5235456E+01 -0.6129198E-07  0.7224799E-10  0.1892494E+01  0.1175302E+01  0.7516321E-08  0.6339647E-08  0.3608007E-09  0.2984902E-08
  0.2297083E+02 -0.6097773E-07 -0.1527098E-07  0.4665987E+01  0.4237264E+01  0.5282845E-07  0.3524292E-08  0.1939933E+01  0.9519888E+00 -0.1109884E-08  0.5722313E-08  0.4127665E-09  0.2471086E-08
  0.2469167E+02 -0.7692132E-07 -0.3607315E-07  0.4811352E+01  0.3075198E+01 -0.6217827E-07  0.1523404E-09  0.1978324E+01  0.6801027E+00  0.3790668E-08  0.2134811E-08  0.4568502E-09  0.1952412E-08
  0.2641250E+02  0.8608012E-08  0.2391090E-07  0.4906083E+01  0.1857993E+01 -0.1005105E-06 -0.1270564E-08  0.2002899E+01  0.3894522E+00  0.1569100E-08 -0.3387868E-10  0.4806917E-09  0.1385423E-08
  0.2813334E+02  0.5420759E-09 -0.4933582E-09  0.5022013E+01 -0.1039059E+00  0.4356470E-07  0.6639880E-09  0.2031359E+01 -0.7768269E-01 -0.1481812E-07  0.6214407E-09  0.5165074E-09  0.3932780E-09
  0.2985417E+02  0.3114503E-07 -0.3538474E-08  0.5194915E+01  0.4626594E+00  0.4819740E-07 -0.1850822E-09  0.2072196E+01  0.1166295E+00 -0.3887767E-08 -0.6412506E-09  0.5933283E-09  0.1861567E-09
  0.3157500E+02 -0.5066233E-07 -0.2247782E-07  0.5186422E+01  0.1421748E+01  0.1365497E-06 -0.1379703E-08  0.2068321E+01  0.3309034E+00 -0.6898276E-08 -0.1237709E-08  0.5923025E-09  0.7993823E-09
  0.3329583E+02  0.9424878E-07 -0.1351839E-07  0.5250395E+01 -0.5414765E+00 -0.1486387E-06  0.1266017E-08  0.2083643E+01 -0.1452270E+00  0.1133181E-07 -0.5570655E-09  0.6117665E-09 -0.1064486E-09
  0.3501667E+02 -0.6765497E-08 -0.3297828E-08  0.5304576E+01  0.8308896E+00  0.6040077E-07  0.6075425E-09  0.2095634E+01  0.1972852E+00  0.2583190E-08 -0.2311481E-08  0.6388257E-09  0.4330544E-09
  0.3673750E+02 -0.3707545E-09 -0.2167326E-08  0.5344762E+01 -0.5198753E+00 -0.1408233E-07 -0.5469701E-08  0.2105073E+01 -0.1295267E+00 -0.6673581E-08  0.3933565E-09  0.6521846E-09 -0.1930574E-09
  0.3845834E+02  0.4834502E-07  0.1305665E-08  0.5364871E+01  0.2601808E+00 -0.9399596E-07  0.4937988E-09  0.2109163E+01  0.5858311E-01  0.1087316E-07  0.1517719E-09  0.6626072E-09  0.1666009E-09
  0.4017917E+02  0.6374291E-10 -0.1403805E-08  0.5409595E+01  0.3302692E+00  0.4570946E-07  0.4397407E-09  0.2119538E+01  0.8006804E-01  0.1634136E-08  0.4869207E-09  0.6812672E-09  0.1453077E-09
  0.4190000E+02 -0.4789976E-07  0.1491856E-09  0.5431611E+01  0.3958669E-01  0.3731958E-07 -0.2152944E-10  0.2124555E+01  0.8805112E-02 -0.4884442E-08 -0.5932677E-10  0.6895166E-09  0.2900402E-10
Zone t="Motion of body    1 in DoF   5",I=    25,F=POINT
  0.6000000E+00 -0.1302623E+02 -0.4610160E-04  0.3129874E-07  0.1816325E-12  0.4100923E-05  0.7185379E-07 -0.1606774E-07  0.2013945E-12  0.3932624E+01  0.9589980E-05  0.3154884E-13  0.2312400E-18
  0.2320833E+01 -0.1469027E+02 -0.5669072E+00  0.1023034E-06 -0.1153603E-07  0.5947892E-05  0.5489448E-05 -0.3560178E-07 -0.1818989E-10  0.4315655E+01  0.1214455E+00  0.8601140E-13 -0.5551115E-16
  0.4041667E+01 -0.1849076E+02 -0.2153295E+02  0.3869789E-07 -0.3958121E-08  0.8350794E-06  0.2555549E-05  0.2943747E-07  0.1138542E-06  0.5237401E+01  0.4853211E+01  0.6043275E-13 -0.6039613E-13
  0.5762500E+01 -0.1134477E+02 -0.7828992E+02  0.8101976E-07 -0.1594890E-06 -0.8398469E-06  0.4440546E-05  0.2380327E-07  0.1100125E-06  0.3641111E+01  0.1854442E+02 -0.7995533E-14 -0.5213607E-12
  0.7483334E+01 -0.3828135E+01 -0.7885363E+02  0.3529795E-07  0.3169989E-06 -0.1105142E-06 -0.3516674E-05  0.4884776E-08  0.6286427E-07  0.1795219E+01  0.1929356E+02  0.4011639E-13  0.8437695E-13
  0.9204167E+01 -0.1838307E+01 -0.6071766E+02  0.1168685E-07 -0.9497162E-06 -0.1002135E-05  0.1981854E-05 -0.3048195E-08  0.5314359E-07  0.1245984E+01  0.1450759E+02  0.3570405E-14 -0.1052491E-12
  0.1092500E+02 -0.1914590E+01 -0.4089749E+02 -0.5818102E-08  0.6043410E-07 -0.5892267E-06 -0.3706664E-06 -0.1087964E-07 -0.1291337E-06  0.1237721E+01  0.1078589E+02 -0.1463360E-14 -0.3442802E-12
  0.1264583E+02 -0.2356656E+01 -0.2833200E+02  0.2312504E-07 -0.1366243E-06 -0.8790460E-06  0.1902226E-06  0.1113905E-08  0.2747402E-07  0.1342509E+01  0.7178832E+01  0.5408086E-14 -0.1823541E-13
  0.1436667E+02 -0.3059747E+01 -0.1906534E+02 -0.2778571E-07  0.3798232E-07 -0.9148135E-06 -0.1881854E-06 -0.4067783E-08  0.2597494E-07  0.1521868E+01  0.4673163E+01 -0.1690836E-13 -0.7451852E-13
  0.1608750E+02 -0.3966416E+01 -0.1188001E+02 -0.1611543E-07  0.2528941E-07 -0.1696440E-05  0.8625211E-06 -0.1791729E-07 -0.3941204E-07  0.1752874E+01  0.2967124E+01 -0.4703826E-13 -0.4461709E-13
  0.1780833E+02 -0.3880631E+01 -0.9033232E+01 -0.1493080E-07  0.1036195E-06 -0.1390264E-05  0.5168113E-07 -0.1661738E-07 -0.4125332E-07  0.1737253E+01  0.2077788E+01  0.6009856E-14  0.6249341E-14
  0.1952917E+02 -0.4237467E+01 -0.6922898E+01  0.3126001E-07  0.3321730E-07 -0.4070716E-06  0.7919880E-07  0.1095650E-07  0.1779085E-08  0.1823824E+01  0.1573010E+01 -0.1005099E-13 -0.6118370E-14
  0.2125000E+02 -0.4487158E+01 -0.5235449E+01 -0.1041986E-07  0.3591371E-07 -0.1252399E-05 -0.1689477E-07  0.2114650E-08 -0.4793677E-08  0.1892492E+01  0.1175302E+01  0.2566313E-13  0.5887001E-14
  0.2297083E+02 -0.4665986E+01 -0.4237267E+01  0.2940432E-07 -0.2333309E-08 -0.9013676E-06  0.2054003E-07  0.1739325E-07  0.5145807E-08  0.1939933E+01  0.9519879E+00 -0.2049271E-14 -0.2928040E-13
  0.2469167E+02 -0.4811349E+01 -0.3075191E+01  0.9080630E-07 -0.1539718E-08 -0.7072896E-06  0.1136377E-06 -0.4941070E-08 -0.1934382E-09  0.1978324E+01  0.6801016E+00  0.6079061E-14 -0.1131603E-13
  0.2641250E+02 -0.4906075E+01 -0.1857988E+01  0.8332979E-07 -0.2205434E-07 -0.1264307E-05  0.3993046E-07 -0.1506072E-07 -0.1044413E-08  0.2002898E+01  0.3894513E+00 -0.1059257E-13 -0.1550821E-13
  0.2813334E+02 -0.5022013E+01  0.1039115E+00 -0.1675056E-07 -0.3148401E-08 -0.1024896E-05 -0.1309854E-07  0.1526089E-07 -0.1539888E-09  0.2031356E+01 -0.7768406E-01  0.5840508E-14  0.1009934E-14
  0.2985417E+02 -0.5194901E+01 -0.4626735E+00 -0.5183560E-07  0.7842885E-08 -0.1277278E-05 -0.7312337E-09 -0.3927542E-07 -0.1673470E-09  0.2072195E+01  0.1166329E+00 -0.8627664E-14  0.7079840E-15
  0.3157500E+02 -0.5186425E+01 -0.1421746E+01  0.4715604E-07 -0.9172823E-08 -0.8810916E-06  0.7772178E-07 -0.1667606E-07  0.1767944E-08  0.2068323E+01  0.3309028E+00 -0.1257374E-13 -0.7732530E-14
  0.3329583E+02 -0.5250392E+01  0.5414810E+00  0.8531200E-08  0.3794526E-08 -0.1017255E-05  0.1667941E-06 -0.1724421E-07 -0.1870603E-08  0.2083643E+01 -0.1452281E+00 -0.1539169E-13  0.2954234E-14
  0.3501667E+02 -0.5304573E+01 -0.8308895E+00  0.9613655E-07 -0.4343178E-08 -0.1186844E-05 -0.5222682E-07  0.5921057E-08 -0.1628337E-08  0.2095634E+01  0.1972852E+00  0.2429914E-13  0.5414072E-14
  0.3673750E+02 -0.5344760E+01  0.5198760E+00  0.4444301E-07  0.7678977E-08 -0.7313180E-06  0.1045701E-06 -0.1229511E-08  0.1483841E-08  0.2105069E+01 -0.1295268E+00 -0.4020526E-13  0.1579466E-14
  0.3845834E+02 -0.5364864E+01 -0.2601786E+00  0.4237870E-07 -0.1507630E-08 -0.1273202E-05  0.1268381E-07 -0.2727372E-07 -0.4700098E-09  0.2109160E+01  0.5858260E-01  0.1039255E-13 -0.7850708E-15
  0.4017917E+02 -0.5409587E+01 -0.3302721E+00 -0.5966047E-07  0.6631353E-09 -0.1419311E-05 -0.4289905E-07 -0.2745581E-07 -0.6232312E-09  0.2119537E+01  0.8006863E-01 -0.1951911E-13 -0.2255141E-14
  0.4190000E+02 -0.5431606E+01 -0.3958980E-01 -0.6184460E-07 -0.1049259E-09 -0.1368488E-05 -0.2970910E-07  0.2104367E-07  0.1607248E-10  0.2124555E+01  0.8805865E-02 -0.2541589E-13 -0.2262594E-15
Zone t="Motion of body    1 in DoF   6",I=    25,F=POINT
  0.6000000E+00  0.1029616E-12 -0.1772545E-20  0.1861188E-07  0.8814669E-13  0.1452542E-13 -0.3446448E-20  0.3300484E-08  0.1817828E-13 -0.8874845E-13 -0.1094360E-20  0.1646612E-11 -0.9618057E-20
  0.2320833E+01 -0.8241165E-13 -0.1013814E-15  0.2114462E-07  0.9917492E-09  0.1502090E-13  0.5393906E-17  0.3878419E-08  0.2124706E-09 -0.9663127E-14  0.4340536E-16  0.1665878E-11  0.1705187E-16
  0.4041667E+01  0.3842974E-13  0.1800426E-13  0.2639033E-07  0.3429387E-07  0.6153153E-14  0.2463307E-14  0.5150655E-08  0.7727702E-08  0.3240020E-13 -0.4855925E-14  0.1685446E-11  0.4599619E-14
  0.5762500E+01  0.8129819E-12 -0.4204970E-13  0.1479403E-07  0.1127931E-06 -0.7282678E-14  0.1920686E-13  0.2552970E-08  0.2673018E-07  0.2566277E-13  0.1266348E-12  0.1713878E-11  0.1530524E-12
  0.7483334E+01  0.2919565E-12  0.1112888E-11  0.4807610E-08  0.1052175E-06 -0.5103564E-14  0.8437695E-14  0.8227703E-10  0.2578990E-07 -0.6280054E-13 -0.7800427E-12  0.1690368E-11  0.5306764E-12
  0.9204167E+01 -0.3699470E-13 -0.3617870E-12  0.2887372E-08  0.7881588E-07 -0.3859897E-14  0.1129652E-13 -0.4921945E-09  0.1883283E-07 -0.9649742E-16  0.2264855E-12  0.1680426E-11  0.7607782E-12
  0.1092500E+02  0.1733676E-13 -0.1384025E-11  0.3216996E-08  0.5445543E-07  0.4227485E-14 -0.7494005E-15 -0.4070957E-09  0.1435259E-07  0.1032482E-13  0.1088366E-12  0.1664643E-11  0.7209880E-12
  0.1264583E+02  0.8077012E-15 -0.5262869E-12  0.3850594E-08  0.4074487E-07 -0.3160570E-14 -0.2066056E-14 -0.2678933E-09  0.1032218E-07 -0.2261563E-13  0.3035588E-12  0.1729177E-11  0.9055924E-12
  0.1436667E+02 -0.1318357E-13 -0.8939099E-12  0.4647270E-08  0.3110473E-07  0.1236443E-13  0.4718448E-15 -0.6971080E-10  0.7658255E-08 -0.1896394E-13  0.4855838E-12  0.1720018E-11  0.2314299E-11
  0.1608750E+02 -0.5810771E-14 -0.9661326E-12  0.5950399E-08  0.2158140E-07  0.6735526E-14 -0.2602085E-16  0.2636650E-09  0.5389712E-08 -0.2985439E-13 -0.2662558E-12  0.1724671E-11  0.3983279E-11
  0.1780833E+02  0.3304174E-14 -0.9536859E-14  0.5461990E-08  0.1801498E-07  0.3840323E-14  0.1561251E-16  0.1468789E-09  0.4139521E-08  0.3820373E-13  0.5921739E-13  0.1521251E-11  0.5983124E-11
  0.1952917E+02 -0.1675127E-12 -0.8424294E-13  0.5876353E-08  0.1558694E-07  0.2364938E-14 -0.3469447E-16  0.2579090E-09  0.3541289E-08 -0.2132992E-13 -0.5497534E-13  0.1451981E-11  0.4190319E-11
  0.2125000E+02 -0.2549595E-14 -0.1450335E-12  0.6195687E-08  0.1329767E-07  0.4179663E-15  0.2602085E-17  0.3403746E-09  0.3005832E-08  0.4743918E-14  0.6223754E-14  0.1456725E-11  0.3904592E-11
  0.2297083E+02  0.7733098E-15  0.6495412E-13  0.6413283E-08  0.1144336E-07  0.5103844E-14 -0.7112366E-16  0.3999627E-09  0.2577349E-08 -0.3866549E-15  0.5772292E-14  0.1470741E-11  0.2178860E-11
  0.2469167E+02 -0.2579104E-13 -0.8552208E-13  0.6599823E-08  0.8989834E-08 -0.4316493E-15  0.8673617E-18  0.4439191E-09  0.1999918E-08  0.2064722E-13 -0.2755608E-14  0.1452232E-11  0.1766256E-11
  0.2641250E+02  0.7095339E-13  0.2622699E-12  0.6711294E-08  0.5507589E-08  0.2622922E-14  0.1133804E-15  0.4769251E-09  0.1154277E-08  0.3581297E-14 -0.2675328E-13  0.1465289E-11  0.8912680E-12
  0.2813334E+02 -0.2460906E-13  0.3916482E-13  0.6890690E-08 -0.4939688E-09 -0.8208282E-15  0.1797607E-15  0.5231102E-09 -0.2842616E-09  0.9108036E-14 -0.9416025E-14  0.1505260E-11  0.1623892E-11
  0.2985417E+02  0.8862693E-13 -0.2388923E-12  0.7309863E-08  0.1486826E-08  0.6545124E-15  0.5204170E-17  0.6230251E-09  0.3746832E-09  0.6470748E-13  0.1758717E-13  0.1468269E-11  0.2562336E-11
  0.3157500E+02  0.3940896E-13 -0.2186592E-14  0.7176866E-08  0.4538472E-08 -0.3938083E-14  0.8131516E-17  0.5864773E-09  0.1057752E-08 -0.1381142E-13  0.5133209E-14  0.1450842E-11  0.2318799E-11
  0.3329583E+02  0.9509768E-13 -0.1584045E-13  0.7289816E-08 -0.1836150E-08 -0.5014969E-14 -0.1138412E-16  0.6147274E-09 -0.4923157E-09  0.2544830E-13  0.5203628E-14  0.1459283E-11  0.8192862E-12
  0.3501667E+02  0.1614447E-13 -0.2409012E-13  0.7394459E-08  0.2859713E-08 -0.2029156E-14  0.6204347E-16  0.6374479E-09  0.6792230E-09 -0.4511067E-13  0.1475557E-13  0.1470160E-11  0.6612164E-12
  0.3673750E+02  0.1284973E-12 -0.1679834E-13  0.7464977E-08 -0.1690208E-08 -0.1934107E-15 -0.9812030E-17  0.6545204E-09 -0.4210864E-09 -0.5187035E-13  0.7504671E-14  0.1473218E-11  0.3145948E-12
  0.3845834E+02  0.2543173E-12 -0.3826475E-14  0.7476039E-08  0.8596412E-09  0.4203210E-14 -0.6125742E-17  0.6555057E-09  0.1934755E-09 -0.2152413E-13 -0.3709123E-14  0.1485405E-11  0.3291581E-12
  0.4017917E+02  0.9096391E-14 -0.1480370E-14  0.7576626E-08  0.1099803E-08 -0.8709545E-14 -0.2331035E-17  0.6790571E-09  0.2663287E-09 -0.9969556E-14 -0.8034751E-15  0.1491258E-11  0.1840277E-12
  0.4190000E+02 -0.3780588E-13  0.6190244E-14  0.7609979E-08  0.1626713E-09  0.4239515E-15  0.1233280E-17  0.6867034E-09  0.3644436E-10  0.5352388E-13 -0.1280419E-14  0.1495879E-11 -0.5510875E-13
